9 9 60.0 59.0
9 9 80.0 49.0
9 9 100.0 41.0
9 9 120.0 38.0
9 9 140.0 33.0
9 9 160.0 32.0
9 9 180.0 29.0
9 9 200.0 27.0
9 9 250.0 24.0
9 9 300.0 22.0
9 9 350.0 20.0
9 9 400.0 18.0
9 9 450.0 18.0
9 9 500.0 17.0
9 9 550.0 16.0
9 9 600.0 14.0
9 9 650.0 14.0
9 9 700.0 14.0
9 24 40.0 65.0
9 24 60.0 50.0
9 24 80.0 44.0
9 24 100.0 37.0
9 24 120.0 33.0
9 24 140.0 31.0
9 24 160.0 28.0
9 24 180.0 25.0
9 24 200.0 25.0
9 24 250.0 21.0
9 24 300.0 19.0
9 24 350.0 18.0
9 24 400.0 16.0
9 24 450.0 16.0
9 24 500.0 14.0
9 24 550.0 14.0
9 24 600.0 13.0
9 24 650.0 13.0
9 24 700.0 12.0
9 48 40.0 49.0
9 48 60.0 39.0
9 48 80.0 33.0
9 48 100.0 26.0
9 48 120.0 25.0
9 48 140.0 23.0
9 48 160.0 22.0
9 48 180.0 20.0
9 48 200.0 19.0
9 48 250.0 18.0
9 48 300.0 16.0
9 48 350.0 15.0
9 48 400.0 14.0
9 48 450.0 13.0
9 48 500.0 12.0
9 48 550.0 12.0
9 48 600.0 12.0
9 48 650.0 12.0
9 48 700.0 12.0
9 84 40.0 51.0
9 84 60.0 42.0
9 84 80.0 35.0
9 84 100.0 31.0
9 84 120.0 27.0
9 84 140.0 27.0
9 84 160.0 24.0
9 84 180.0 23.0
9 84 200.0 20.0
9 84 250.0 19.0
9 84 300.0 18.0
9 84 350.0 16.0
9 84 400.0 14.0
9 84 450.0 15.0
9 84 500.0 14.0
9 84 550.0 14.0
9 84 600.0 13.0
9 84 650.0 12.0
9 84 700.0 12.0
9 129 40.0 65.0
9 129 60.0 52.0
9 129 80.0 43.0
9 129 100.0 38.0
9 129 120.0 34.0
9 129 140.0 30.0
9 129 160.0 29.0
9 129 180.0 28.0
9 129 200.0 26.0
9 129 250.0 24.0
9 129 300.0 22.0
9 129 350.0 20.0
9 129 400.0 19.0
9 129 450.0 19.0
9 129 500.0 17.0
9 129 550.0 16.0
9 129 600.0 17.0
9 129 650.0 14.0
9 129 700.0 16.0
9 198 40.0 53.0
9 198 60.0 44.0
9 198 80.0 37.0
9 198 100.0 34.0
9 198 120.0 31.0
9 198 140.0 27.0
9 198 160.0 26.0
9 198 180.0 24.0
9 198 200.0 23.0
9 198 250.0 21.0
9 198 300.0 19.0
9 198 350.0 18.0
9 198 400.0 17.0
9 198 450.0 16.0
9 198 500.0 16.0
9 198 550.0 16.0
9 198 600.0 15.0
9 198 650.0 15.0
9 198 700.0 14.0
9 291 40.0 61.0
9 291 60.0 49.0
9 291 80.0 39.0
9 291 100.0 35.0
9 291 120.0 31.0
9 291 140.0 28.0
9 291 160.0 28.0
9 291 180.0 25.0
9 291 200.0 24.0
9 291 250.0 22.0
9 291 300.0 19.0
9 291 350.0 18.0
9 291 400.0 17.0
9 291 450.0 17.0
9 291 500.0 16.0
9 291 550.0 16.0
9 291 600.0 16.0
9 291 650.0 16.0
9 291 700.0 16.0
9 390 40.0 69.0
9 390 60.0 56.0
9 390 80.0 47.0
9 390 100.0 44.0
9 390 120.0 36.0
9 390 140.0 34.0
9 390 160.0 32.0
9 390 180.0 30.0
9 390 200.0 29.0
9 390 250.0 25.0
9 390 300.0 22.0
9 390 350.0 22.0
9 390 400.0 21.0
9 390 450.0 20.0
9 390 500.0 19.0
9 390 550.0 18.0
9 390 600.0 18.0
9 390 650.0 18.0
9 390 700.0 18.0
9 534 60.0 63.0
9 534 80.0 52.0
9 534 100.0 47.0
9 534 120.0 44.0
9 534 140.0 39.0
9 534 160.0 37.0
9 534 180.0 36.0
9 534 200.0 34.0
9 534 250.0 31.0
9 534 300.0 28.0
9 534 350.0 27.0
9 534 400.0 26.0
9 534 450.0 24.0
9 534 500.0 23.0
9 534 550.0 22.0
9 534 600.0 22.0
9 534 650.0 21.0
9 534 700.0 20.0
9 696 80.0 64.0
9 696 100.0 56.0
9 696 120.0 53.0
9 696 140.0 49.0
9 696 160.0 44.0
9 696 180.0 42.0
9 696 200.0 40.0
9 696 250.0 35.0
9 696 300.0 33.0
9 696 350.0 30.0
9 696 400.0 29.0
9 696 450.0 28.0
9 696 500.0 26.0
9 696 550.0 25.0
9 696 600.0 24.0
9 696 650.0 24.0
9 696 700.0 23.0
9 882 40.0 68.0
9 882 60.0 50.0
9 882 80.0 43.0
9 882 100.0 38.0
9 882 120.0 37.0
9 882 140.0 36.0
9 882 160.0 34.0
9 882 180.0 33.0
9 882 200.0 31.0
9 882 250.0 28.0
9 882 300.0 27.0
9 882 350.0 26.0
9 882 400.0 24.0
9 882 450.0 23.0
9 882 500.0 21.0
9 882 550.0 22.0
9 882 600.0 21.0
9 882 650.0 21.0
9 882 700.0 20.0
9 1098 40.0 67.0
9 1098 60.0 52.0
9 1098 80.0 44.0
9 1098 100.0 38.0
9 1098 120.0 37.0
9 1098 140.0 37.0
9 1098 160.0 36.0
9 1098 180.0 32.0
9 1098 200.0 33.0
9 1098 250.0 31.0
9 1098 300.0 28.0
9 1098 350.0 28.0
9 1098 400.0 26.0
9 1098 450.0 25.0
9 1098 500.0 24.0
9 1098 550.0 24.0
9 1098 600.0 24.0
9 1098 650.0 24.0
9 1098 700.0 22.0
9 1356 80.0 68.0
9 1356 100.0 57.0
9 1356 120.0 53.0
9 1356 140.0 50.0
9 1356 160.0 47.0
9 1356 180.0 43.0
9 1356 200.0 41.0
9 1356 250.0 37.0
9 1356 300.0 33.0
9 1356 350.0 31.0
9 1356 400.0 30.0
9 1356 450.0 28.0
9 1356 500.0 27.0
9 1356 550.0 25.0
9 1356 600.0 25.0
9 1356 650.0 24.0
9 1356 700.0 24.0
