1.0	0.6	2.6375008328266813e-15	200
1.0	0.6	2.628930405021486e-15	210
1.0	0.6	2.620978646873795e-15	220
1.0	0.6	2.6135860350505856e-15	230
1.0	0.6	2.606699563581288e-15	240
1.0	0.6	2.6002718199172154e-15	250
1.0	0.6	2.5942602769836117e-15	260
1.0	0.6	2.5886267263810973e-15	270
1.0	0.6	2.583336807362873e-15	280
1.0	0.6	2.5783596039298104e-15	290
1.0	0.6	2.573667292964049e-15	300
1.0	0.6	2.569234832604379e-15	310
1.0	0.6	2.5650396837858887e-15	320
1.0	0.6	2.561061560068035e-15	330
1.0	0.6	2.557282202187695e-15	340
1.0	0.6	2.553685174569155e-15	350
1.0	0.6	2.5502556815214336e-15	360
1.0	0.6	2.546980401182623e-15	370
1.0	0.6	2.5438473355046933e-15	380
1.0	0.6	2.5408456747516096e-15	390
1.0	0.6	2.5379656751318416e-15	400
1.0	0.6	2.5351985483152914e-15	410
1.0	0.6	2.532536361700815e-15	420
1.0	0.6	2.529971948406761e-15	430
1.0	0.6	2.5274988260547334e-15	440
1.0	0.6	2.5251111235067426e-15	450
1.0	0.6	2.5228035147983625e-15	460
1.0	0.6	2.520571159585502e-15	470
1.0	0.6	2.5184096494905086e-15	480
1.0	0.6	2.5163149597946658e-15	490
1.0	0.6	2.5142834059790214e-15	500
1.0	0.6	2.512311604664863e-15	510
1.0	0.6	2.5103964385487596e-15	520
1.0	0.6	2.508535024966222e-15	530
1.0	0.6	2.506724687752597e-15	540
1.0	0.6	2.504962932100633e-15	550
1.0	0.6	2.5032474221415064e-15	560
1.0	0.6	2.5015759610005433e-15	570
1.0	0.6	2.4999464731006834e-15	580
1.0	0.6	2.498356988506213e-15	590
1.0	0.6	2.4968056291169243e-15	600
1.0	0.6	2.4952905965387176e-15	610
1.0	0.6	2.4938101614709804e-15	620
1.0	0.6	2.492362654464271e-15	630
1.0	0.6	2.490946457913636e-15	640
1.0	0.6	2.489559999164007e-15	650
1.0	0.6	2.48820174461406e-15	660
1.0	0.6	2.486870194714341e-15	670
1.0	0.6	2.485563879763949e-15	680
1.0	0.6	2.4842813564181214e-15	690
1.0	0.6	2.483021204826408e-15	700
1.0	0.6	2.4817820263280113e-15	710
1.0	0.6	2.4805624416372356e-15	720
1.0	0.6	2.47936108945797e-15	730
1.0	0.6	2.478176625471549e-15	740
1.0	0.6	2.477007721647595e-15	750
1.0	0.6	2.475853065832075e-15	760
1.0	0.6	2.4747113615713227e-15	770
1.0	0.6	2.4735813281347987e-15	780
1.0	0.6	2.472461700703176e-15	790
1.0	0.6	2.4713512306918286e-15	800
1.0	0.6	2.470248686183037e-15	810
1.0	0.6	2.469152852443138e-15	820
1.0	0.6	2.4680625325036493e-15	830
1.0	0.6	2.4669765477878356e-15	840
1.0	0.6	2.4658937387664866e-15	850
1.0	0.6	2.4648129656287653e-15	860
1.0	0.6	2.4637331089558804e-15	870
1.0	0.6	2.4626530703870417e-15	880
1.0	0.6	2.4615717732687662e-15	890
1.0	0.6	2.460488163279922e-15	900
1.0	0.6	2.459401209026282e-15	910
1.0	0.6	2.458309902599363e-15	920
1.0	0.6	2.4572132600954973e-15	930
1.0	0.6	2.456110322091818e-15	940
1.0	0.6	2.4550001540767963e-15	950
1.0	0.6	2.4538818468335975e-15	960
1.0	0.6	2.452754516775158e-15	970
1.0	0.6	2.451617306230437e-15	980
1.0	0.6	2.4504693836818314e-15	990
1.0	0.6	2.4493099439540016e-15	1000
1.0	0.6	2.4481382083549117e-15	1010
1.0	0.6	2.4469534247700126e-15	1020
1.0	0.6	2.4457548677108506e-15	1030
1.0	0.6	2.4445418383195576e-15	1040
1.0	0.6	2.443313664330847e-15	1050
1.0	0.6	2.4420696999932907e-15	1060
1.0	0.6	2.440809325951754e-15	1070
1.0	0.6	2.439531949092937e-15	1080
1.0	0.6	2.4382370023560208e-15	1090
1.0	0.6	2.4369239445104738e-15	1100
1.0	0.6	2.435592259903085e-15	1110
1.0	0.6	2.4342414581762487e-15	1120
1.0	0.6	2.432871073959573e-15	1130
1.0	0.6	2.4314806665368147e-15	1140
1.0	0.6	2.430069819490129e-15	1150
1.0	0.6	2.4286381403235555e-15	1160
1.0	0.6	2.427185260067649e-15	1170
1.0	0.6	2.425710832867048e-15	1180
1.0	0.6	2.4242145355527785e-15	1190
1.0	0.6	2.422696067200982e-15	1200
1.0	0.6	2.4211551486796742e-15	1210
1.0	0.6	2.419591522185127e-15	1220
1.0	0.6	2.418004950769352e-15	1230
1.0	0.6	2.4163952178600867e-15	1240
1.0	0.6	2.414762126774645e-15	1250
1.0	0.6	2.4131055002289076e-15	1260
1.0	0.6	2.411425179842607e-15	1270
1.0	0.6	2.4097210256421208e-15	1280
1.0	0.6	2.407992915561751e-15	1290
1.0	0.6	2.4062407449445227e-15	1300
1.0	0.6	2.4044644260434425e-15	1310
1.0	0.6	2.4026638875240543e-15	1320
1.0	0.6	2.4008390739691067e-15	1330
1.0	0.6	2.398989945386079e-15	1340
1.0	0.6	2.3971164767182637e-15	1350
1.0	0.6	2.395218657360004e-15	1360
1.0	0.6	2.3932964906767156e-15	1370
1.0	0.6	2.3913499935301763e-15	1380
1.0	0.6	2.3893791958096024e-15	1390
1.0	0.6	2.3873841399689278e-15	1400
1.0	0.6	2.3853648805706893e-15	1410
1.0	0.6	2.3833214838368644e-15	1420
1.0	0.6	2.3812540272069865e-15	1430
1.0	0.6	2.379162598903816e-15	1440
1.0	0.6	2.377047297506786e-15	1450
1.0	0.6	2.3749082315334763e-15	1460
1.0	0.6	2.3727455190292607e-15	1470
1.0	0.6	2.3705592871652947e-15	1480
1.0	0.6	2.368349671844967e-15	1490
1.0	0.6	2.366116817318918e-15	1500
1.0	0.6	2.363860875808701e-15	1510
1.0	0.6	2.3615820071391325e-15	1520
1.0	0.6	2.359280378379381e-15	1530
1.0	0.6	2.3569561634928073e-15	1540
1.0	0.6	2.354609542995536e-15	1550
1.0	0.6	2.3522407036237825e-15	1560
1.0	0.6	2.3498498380098547e-15	1570
1.0	0.6	2.3474371443668214e-15	1580
1.0	0.6	2.3450028261817735e-15	1590
1.0	0.8	1.957829249627328e-15	200
1.0	0.8	1.952620102423287e-15	210
1.0	0.8	1.9476196359003533e-15	220
1.0	0.8	1.9427937689067164e-15	230
1.0	0.8	1.9381169022937257e-15	240
1.0	0.8	1.933570149340947e-15	250
1.0	0.8	1.929139864305698e-15	260
1.0	0.8	1.9248164365967813e-15	270
1.0	0.8	1.9205933157580114e-15	280
1.0	0.8	1.9164662327829645e-15	290
1.0	0.8	1.9124325854591767e-15	300
1.0	0.8	1.9084909586850282e-15	310
1.0	0.8	1.904640754410394e-15	320
1.0	0.8	1.9008819096044733e-15	330
1.0	0.8	1.8972146841920757e-15	340
1.0	0.8	1.89363950408402e-15	350
1.0	0.8	1.8901568472011524e-15	360
1.0	0.8	1.8867671627503014e-15	370
1.0	0.8	1.883470815979559e-15	380
1.0	0.8	1.880268052260534e-15	390
1.0	0.8	1.877158975663014e-15	400
1.0	0.8	1.8741435382492777e-15	410
1.0	0.8	1.871221537163697e-15	420
1.0	0.8	1.868392617267047e-15	430
1.0	0.8	1.865656277596162e-15	440
1.0	0.8	1.8630118803467548e-15	450
1.0	0.8	1.8604586614025423e-15	460
1.0	0.8	1.8579957416866314e-15	470
1.0	0.8	1.8556221388062874e-15	480
1.0	0.8	1.8533367786122123e-15	490
1.0	0.8	1.8511385064078846e-15	500
1.0	0.8	1.849026097631288e-15	510
1.0	0.8	1.8469982678965676e-15	520
1.0	0.8	1.8450536823316843e-15	530
1.0	0.8	1.843190964183758e-15	540
1.0	0.8	1.841408702689505e-15	550
1.0	0.8	1.839705460226442e-15	560
1.0	0.8	1.8380797787728414e-15	570
1.0	0.8	1.83653018571265e-15	580
1.0	0.8	1.835055199026405e-15	590
1.0	0.8	1.8336533319116122e-15	600
1.0	0.8	1.832323096876911e-15	610
1.0	0.8	1.8310630093537277e-15	620
1.0	0.8	1.8298715908677904e-15	630
1.0	0.8	1.828747371810931e-15	640
1.0	0.8	1.827688893851271e-15	650
1.0	0.8	1.826694712017339e-15	660
1.0	0.8	1.8257633964890823e-15	670
1.0	0.8	1.824893534126135e-15	680
1.0	0.8	1.82408372976109e-15	690
1.0	0.8	1.8233326072831318e-15	700
1.0	0.8	1.8226388105350415e-15	710
1.0	0.8	1.8220010040443737e-15	720
1.0	0.8	1.8214178736076147e-15	730
1.0	0.8	1.820888126744226e-15	740
1.0	0.8	1.8204104930357906e-15	750
1.0	0.8	1.8199837243638647e-15	760
1.0	0.8	1.8196065950587108e-15	770
1.0	0.8	1.8192779019698427e-15	780
1.0	0.8	1.8189964644680534e-15	790
1.0	0.8	1.818761124387638e-15	800
1.0	0.8	1.818570745916459e-15	810
1.0	0.8	1.8184242154407596e-15	820
1.0	0.8	1.8183204413508196e-15	830
1.0	0.8	1.818258353812814e-15	840
1.0	0.8	1.8182369045117688e-15	850
1.0	0.8	1.8182550663697743e-15	860
1.0	0.8	1.8183118332433415e-15	870
1.0	0.8	1.818406219603162e-15	880
1.0	0.8	1.8185372601993135e-15	890
1.0	0.8	1.8187040097145205e-15	900
1.0	0.8	1.818905542407783e-15	910
1.0	0.8	1.8191409517504974e-15	920
1.0	0.8	1.819409350056855e-15	930
1.0	0.8	1.8197098681101675e-15	940
1.0	0.8	1.820041654786564e-15	950
1.0	0.8	1.820403876677307e-15	960
1.0	0.8	1.8207957177109133e-15	970
1.0	0.8	1.821216378776005e-15	980
1.0	0.8	1.821665077345856e-15	990
1.0	0.8	1.8221410471053466e-15	1000
1.0	0.8	1.8226435375810686e-15	1010
1.0	0.8	1.8231718137751523e-15	1020
1.0	0.8	1.8237251558033896e-15	1030
1.0	0.8	1.824302858538074e-15	1040
1.0	0.8	1.8249042312560194e-15	1050
1.0	0.8	1.825528597292073e-15	1060
1.0	0.8	1.8261752936984683e-15	1070
1.0	0.8	1.8268436709102564e-15	1080
1.0	0.8	1.8275330924170428e-15	1090
1.0	0.8	1.8282429344412606e-15	1100
1.0	0.8	1.8289725856230752e-15	1110
1.0	0.8	1.8297214467121147e-15	1120
1.0	0.8	1.830488930266081e-15	1130
1.0	0.8	1.8312744603563346e-15	1140
1.0	0.8	1.8320774722805334e-15	1150
1.0	0.8	1.832897412282301e-15	1160
1.0	0.8	1.833733737278012e-15	1170
1.0	0.8	1.8345859145906357e-15	1180
1.0	0.8	1.835453421690645e-15	1190
1.0	0.8	1.8363357459439625e-15	1200
1.0	0.8	1.8372323843668804e-15	1210
1.0	0.8	1.8381428433879227e-15	1220
1.0	0.8	1.8390666386165414e-15	1230
1.0	0.8	1.8400032946186147e-15	1240
1.0	0.8	1.840952344698621e-15	1250
1.0	0.8	1.8419133306884134e-15	1260
1.0	0.8	1.842885802742485e-15	1270
1.0	0.8	1.8438693191396015e-15	1280
1.0	0.8	1.8448634460907185e-15	1290
1.0	0.8	1.8458677575530148e-15	1300
1.0	0.8	1.846881835049956e-15	1310
1.0	0.8	1.8479052674972348e-15	1320
1.0	0.8	1.8489376510344606e-15	1330
1.0	0.8	1.8499785888624582e-15	1340
1.0	0.8	1.8510276910860497e-15	1350
1.0	0.8	1.8520845745621497e-15	1360
1.0	0.8	1.8531488627530665e-15	1370
1.0	0.8	1.8542201855848322e-15	1380
1.0	0.8	1.8552981793104385e-15	1390
1.0	0.8	1.8563824863778437e-15	1400
1.0	0.8	1.8574727553025527e-15	1410
1.0	0.8	1.858568640544704e-15	1420
1.0	0.8	1.8596698023904522e-15	1430
1.0	0.8	1.8607759068375448e-15	1440
1.0	0.8	1.8618866254849335e-15	1450
1.0	0.8	1.8630016354262888e-15	1460
1.0	0.8	1.8641206191472787e-15	1470
1.0	0.8	1.865243264426458e-15	1480
1.0	0.8	1.866369264239681e-15	1490
1.0	0.8	1.8674983166678495e-15	1500
1.0	0.8	1.8686301248078983e-15	1510
1.0	0.8	1.8697643966869055e-15	1520
1.0	0.8	1.8709008451791573e-15	1530
1.0	0.8	1.872039187926098e-15	1540
1.0	0.8	1.8731791472590053e-15	1550
1.0	0.8	1.8743204501243177e-15	1560
1.0	0.8	1.8754628280114436e-15	1570
1.0	0.8	1.8766060168830227e-15	1580
1.0	0.8	1.877749757107438e-15	1590
1.0	1.0	1.2703049885251804e-15	200
1.0	1.0	1.2710814646446733e-15	210
1.0	1.0	1.2720120394873165e-15	220
1.0	1.0	1.2730767319655098e-15	230
1.0	1.0	1.2742580542381515e-15	240
1.0	1.0	1.275540728581268e-15	250
1.0	1.0	1.2769114742756683e-15	260
1.0	1.0	1.278358827993399e-15	270
1.0	1.0	1.2798729779668813e-15	280
1.0	1.0	1.2814456029958554e-15	290
1.0	1.0	1.2830697137031864e-15	300
1.0	1.0	1.2847394967908136e-15	310
1.0	1.0	1.2864501644630135e-15	320
1.0	1.0	1.2881978114641056e-15	330
1.0	1.0	1.2899792818565534e-15	340
1.0	1.0	1.2917920470842564e-15	350
1.0	1.0	1.2936340962273091e-15	360
1.0	1.0	1.295503838768392e-15	370
1.0	1.0	1.297400019707116e-15	380
1.0	1.0	1.299321646491771e-15	390
1.0	1.0	1.3012679269824038e-15	400
1.0	1.0	1.3032382175003242e-15	410
1.0	1.0	1.3052319799384499e-15	420
1.0	1.0	1.307248746886418e-15	430
1.0	1.0	1.309288093747474e-15	440
1.0	1.0	1.3113496168773684e-15	450
1.0	1.0	1.3134329168474696e-15	460
1.0	1.0	1.3155375860169162e-15	470
1.0	1.0	1.3176631996852214e-15	480
1.0	1.0	1.3198093101830538e-15	490
1.0	1.0	1.3219754433417926e-15	500
1.0	1.0	1.3241610968598492e-15	510
1.0	1.0	1.3263657401547793e-15	520
1.0	1.0	1.3285888153540092e-15	530
1.0	1.0	1.3308297391339305e-15	540
1.0	1.0	1.3330879051668939e-15	550
1.0	1.0	1.3353626869790875e-15	560
1.0	1.0	1.3376534410596521e-15	570
1.0	1.0	1.3399595100932906e-15	580
1.0	1.0	1.3422802262157166e-15	590
1.0	1.0	1.3446149142140461e-15	600
1.0	1.0	1.346962894613168e-15	610
1.0	1.0	1.3493234866049178e-15	620
1.0	1.0	1.3516960107896742e-15	630
1.0	1.0	1.354079791710572e-15	640
1.0	1.0	1.3564741601688566e-15	650
1.0	1.0	1.3588784553156522e-15	660
1.0	1.0	1.3612920265206575e-15	670
1.0	1.0	1.3637142350222939e-15	680
1.0	1.0	1.3661444553668638e-15	690
1.0	1.0	1.3685820766464883e-15	700
1.0	1.0	1.3710265035471223e-15	710
1.0	1.0	1.3734771572189303e-15	720
1.0	1.0	1.3759334759818475e-15	730
1.0	1.0	1.3783949158793906e-15	740
1.0	1.0	1.3808609510936611e-15	750
1.0	1.0	1.3833310742342856e-15	760
1.0	1.0	1.3858047965135408e-15	770
1.0	1.0	1.3882816478194392e-15	780
1.0	1.0	1.390761176697883e-15	790
1.0	1.0	1.3932429502543652e-15	800
1.0	1.0	1.3957265539849781e-15	810
1.0	1.0	1.3982115915458057e-15	820
1.0	1.0	1.400697684469087e-15	830
1.0	1.0	1.4031844718337756e-15	840
1.0	1.0	1.4056716098976074e-15	850
1.0	1.0	1.4081587716969684e-15	860
1.0	1.0	1.4106456466204137e-15	870
1.0	1.0	1.413131939960999e-15	880
1.0	1.0	1.4156173724521376e-15	890
1.0	1.0	1.4181016797911473e-15	900
1.0	1.0	1.4205846121541954e-15	910
1.0	1.0	1.4230659337059417e-15	920
1.0	1.0	1.4255454221067943e-15	930
1.0	1.0	1.4280228680202803e-15	940
1.0	1.0	1.4304980746227827e-15	950
1.0	1.0	1.432970857117527e-15	960
1.0	1.0	1.4354410422544971e-15	970
1.0	1.0	1.4379084678576386e-15	980
1.0	1.0	1.4403729823605584e-15	990
1.0	1.0	1.442834444351717e-15	1000
1.0	1.0	1.445292722129887e-15	1010
1.0	1.0	1.4477476932705447e-15	1020
1.0	1.0	1.4501992442037273e-15	1030
1.0	1.0	1.452647269803708e-15	1040
1.0	1.0	1.4550916729907981e-15	1050
1.0	1.0	1.457532364345428e-15	1060
1.0	1.0	1.459969261734659e-15	1070
1.0	1.0	1.4624022899510844e-15	1080
1.0	1.0	1.4648313803641543e-15	1090
1.0	1.0	1.46725647058377e-15	1100
1.0	1.0	1.4696775041360698e-15	1110
1.0	1.0	1.4720944301511923e-15	1120
1.0	1.0	1.4745072030628113e-15	1130
1.0	1.0	1.476915782319252e-15	1140
1.0	1.0	1.4793201321058525e-15	1150
1.0	1.0	1.481720221078382e-15	1160
1.0	1.0	1.4841160221071625e-15	1170
1.0	1.0	1.4865075120316223e-15	1180
1.0	1.0	1.4888946714249879e-15	1190
1.0	1.0	1.491277484368765e-15	1200
1.0	1.0	1.4936559382367407e-15	1210
1.0	1.0	1.4960300234881496e-15	1220
1.0	1.0	1.498399733469727e-15	1230
1.0	1.0	1.5007650642263237e-15	1240
1.0	1.0	1.5031260143197697e-15	1250
1.0	1.0	1.5054825846556996e-15	1260
1.0	1.0	1.507834778318039e-15	1270
1.0	1.0	1.5101826004108559e-15	1280
1.0	1.0	1.5125260579073114e-15	1290
1.0	1.0	1.5148651595054163e-15	1300
1.0	1.0	1.517199915490344e-15	1310
1.0	1.0	1.5195303376030331e-15	1320
1.0	1.0	1.521856438914817e-15	1330
1.0	1.0	1.5241782337078783e-15	1340
1.0	1.0	1.526495737361243e-15	1350
1.0	1.0	1.5288089662421217e-15	1360
1.0	1.0	1.53111793760238e-15	1370
1.0	1.0	1.5334226694799173e-15	1380
1.0	1.0	1.5357231806047534e-15	1390
1.0	1.0	1.5380194903096423e-15	1400
1.0	1.0	1.5403116184450162e-15	1410
1.0	1.0	1.5425995852980921e-15	1420
1.0	1.0	1.5448834115159508e-15	1430
1.0	1.0	1.5471631180324556e-15	1440
1.0	1.0	1.5494387259988241e-15	1450
1.0	1.0	1.55171025671772e-15	1460
1.0	1.0	1.5539777315807178e-15	1470
1.0	1.0	1.5562411720090118e-15	1480
1.0	1.0	1.5585005993971967e-15	1490
1.0	1.0	1.5607560350600716e-15	1500
1.0	1.0	1.563007500182257e-15	1510
1.0	1.0	1.5652550157705822e-15	1520
1.0	1.0	1.567498602609088e-15	1530
1.0	1.0	1.5697382812165616e-15	1540
1.0	1.0	1.5719740718064893e-15	1550
1.0	1.0	1.5742059942493465e-15	1560
1.0	1.0	1.5764340680371061e-15	1570
1.0	1.0	1.5786583122499114e-15	1580
1.0	1.0	1.5808787455247925e-15	1590
1.0	1.2	1.291460873556075e-15	200
1.0	1.2	1.2942633687659271e-15	210
1.0	1.2	1.2972037366202124e-15	220
1.0	1.2	1.3002751131475406e-15	230
1.0	1.2	1.3034689065685261e-15	240
1.0	1.2	1.3067751930861378e-15	250
1.0	1.2	1.310183083574643e-15	260
1.0	1.2	1.3136810613438946e-15	270
1.0	1.2	1.3172572877311013e-15	280
1.0	1.2	1.3208998718035084e-15	290
1.0	1.2	1.3245971015378597e-15	300
1.0	1.2	1.3283376355254366e-15	310
1.0	1.2	1.3321106559590071e-15	320
1.0	1.2	1.335905985089801e-15	330
1.0	1.2	1.3397141683809086e-15	340
1.0	1.2	1.343526528221184e-15	350
1.0	1.2	1.3473351923507708e-15	360
1.0	1.2	1.3511331011596598e-15	370
1.0	1.2	1.3549139978309126e-15	380
1.0	1.2	1.3586724049792766e-15	390
1.0	1.2	1.3624035910404927e-15	400
1.0	1.2	1.3661035292399144e-15	410
1.0	1.2	1.3697688515424254e-15	420
1.0	1.2	1.3733967995797089e-15	430
1.0	1.2	1.3769851741787558e-15	440
1.0	1.2	1.3805322847835663e-15	450
1.0	1.2	1.3840368997728813e-15	460
1.0	1.2	1.3874981984297052e-15	470
1.0	1.2	1.3909157251110983e-15	480
1.0	1.2	1.3942893459954623e-15	490
1.0	1.2	1.3976192086454984e-15	500
1.0	1.2	1.400905704513862e-15	510
1.0	1.2	1.4041494344313447e-15	520
1.0	1.2	1.4073511770502742e-15	530
1.0	1.2	1.4105118601656233e-15	540
1.0	1.2	1.4136325347997054e-15	550
1.0	1.2	1.4167143519110078e-15	560
1.0	1.2	1.419758541571324e-15	570
1.0	1.2	1.4227663944459482e-15	580
1.0	1.2	1.4257392454079106e-15	590
1.0	1.2	1.4286784591175434e-15	600
1.0	1.2	1.4315854174022068e-15	610
1.0	1.2	1.4344615082767771e-15	620
1.0	1.2	1.4373081164529209e-15	630
1.0	1.2	1.440126615193554e-15	640
1.0	1.2	1.4429183593780422e-15	650
1.0	1.2	1.4456846796529515e-15	660
1.0	1.2	1.4484268775526317e-15	670
1.0	1.2	1.4511462214831021e-15	680
1.0	1.2	1.4538439434716373e-15	690
1.0	1.2	1.4565212365931153e-15	700
1.0	1.2	1.4591792529921422e-15	710
1.0	1.2	1.4618191024277245e-15	720
1.0	1.2	1.4644418512742899e-15	730
1.0	1.2	1.4670485219194839e-15	740
1.0	1.2	1.4696400925052518e-15	750
1.0	1.2	1.472217496964285e-15	760
1.0	1.2	1.474781625309089e-15	770
1.0	1.2	1.477333324135507e-15	780
1.0	1.2	1.4798733973068895e-15	790
1.0	1.2	1.4824026067888538e-15	800
1.0	1.2	1.4849216736081111e-15	810
1.0	1.2	1.487431278911973e-15	820
1.0	1.2	1.4899320651079727e-15	830
1.0	1.2	1.4924246370655635e-15	840
1.0	1.2	1.4949095633641722e-15	850
1.0	1.2	1.4973873775738655e-15	860
1.0	1.2	1.499858579556776e-15	870
1.0	1.2	1.5023236367789987e-15	880
1.0	1.2	1.5047829856241438e-15	890
1.0	1.2	1.5072370327010055e-15	900
1.0	1.2	1.5096861561389349e-15	910
1.0	1.2	1.512130706865549e-15	920
1.0	1.2	1.5145710098622224e-15	930
1.0	1.2	1.5170073653936695e-15	940
1.0	1.2	1.5194400502085696e-15	950
1.0	1.2	1.5218693187087897e-15	960
1.0	1.2	1.5242954040853199e-15	970
1.0	1.2	1.5267185194194417e-15	980
1.0	1.2	1.5291388587481129e-15	990
1.0	1.2	1.5315565980928726e-15	1000
1.0	1.2	1.533971896451824e-15	1010
1.0	1.2	1.5363848967546056e-15	1020
1.0	1.2	1.5387957267804078e-15	1030
1.0	1.2	1.5412045000392806e-15	1040
1.0	1.2	1.543611316617204e-15	1050
1.0	1.2	1.546016263985423e-15	1060
1.0	1.2	1.5484194177747647e-15	1070
1.0	1.2	1.5508208425156623e-15	1080
1.0	1.2	1.5532205923447188e-15	1090
1.0	1.2	1.5556187116787168e-15	1100
1.0	1.2	1.5580152358569912e-15	1110
1.0	1.2	1.5604101917531245e-15	1120
1.0	1.2	1.5628035983569818e-15	1130
1.0	1.2	1.5651954673280474e-15	1140
1.0	1.2	1.567585803521085e-15	1150
1.0	1.2	1.5699746054851754e-15	1160
1.0	1.2	1.572361865937057e-15	1170
1.0	1.2	1.5747475722098182e-15	1180
1.0	1.2	1.5771317066779237e-15	1190
1.0	1.2	1.5795142471595027e-15	1200
1.0	1.2	1.5818951672968806e-15	1210
1.0	1.2	1.5842744369162619e-15	1220
1.0	1.2	1.5866520223674681e-15	1230
1.0	1.2	1.589027886844594e-15	1240
1.0	1.2	1.5914019906884632e-15	1250
1.0	1.2	1.59377429167168e-15	1260
1.0	1.2	1.596144745267081e-15	1270
1.0	1.2	1.5985133049003694e-15	1280
1.0	1.2	1.6008799221876502e-15	1290
1.0	1.2	1.6032445471586204e-15	1300
1.0	1.2	1.6056071284660698e-15	1310
1.0	1.2	1.6079676135823688e-15	1320
1.0	1.2	1.610325948983574e-15	1330
1.0	1.2	1.6126820803217924e-15	1340
1.0	1.2	1.6150359525863391e-15	1350
1.0	1.2	1.6173875102542914e-15	1360
1.0	1.2	1.6197366974309717e-15	1370
1.0	1.2	1.6220834579808552e-15	1380
1.0	1.2	1.6244277356494046e-15	1390
1.0	1.2	1.6267694741763311e-15	1400
1.0	1.2	1.6291086174006678e-15	1410
1.0	1.2	1.6314451093581516e-15	1420
1.0	1.2	1.6337788943712874e-15	1430
1.0	1.2	1.6361099171324883e-15	1440
1.0	1.2	1.638438122780671e-15	1450
1.0	1.2	1.64076345697167e-15	1460
1.0	1.2	1.6430858659427945e-15	1470
1.0	1.2	1.6454052965718463e-15	1480
1.0	1.2	1.6477216964309424e-15	1490
1.0	1.2	1.6500350138353764e-15	1500
1.0	1.2	1.652345197887866e-15	1510
1.0	1.2	1.6546521985183815e-15	1520
1.0	1.2	1.6569559665198687e-15	1530
1.0	1.2	1.659256453580057e-15	1540
1.0	1.2	1.6615536123096282e-15	1550
1.0	1.2	1.6638473962669022e-15	1560
1.0	1.2	1.6661377599793168e-15	1570
1.0	1.2	1.6684246589618353e-15	1580
1.0	1.2	1.6707080497325034e-15	1590
1.0	1.4	1.7702260339983031e-15	200
1.0	1.4	1.7706569617533021e-15	210
1.0	1.4	1.7711181543909738e-15	220
1.0	1.4	1.7716246458365992e-15	230
1.0	1.4	1.7721887152401333e-15	240
1.0	1.4	1.7728201369090164e-15	250
1.0	1.4	1.773526394797877e-15	260
1.0	1.4	1.7743128875896488e-15	270
1.0	1.4	1.7751831359997895e-15	280
1.0	1.4	1.7761389951182316e-15	290
1.0	1.4	1.7771808696825115e-15	300
1.0	1.4	1.7783079278939653e-15	310
1.0	1.4	1.7795183088024386e-15	320
1.0	1.4	1.7808093186995758e-15	330
1.0	1.4	1.7821776128862158e-15	340
1.0	1.4	1.7836193602889176e-15	350
1.0	1.4	1.7851303894911482e-15	360
1.0	1.4	1.786706315704182e-15	370
1.0	1.4	1.7883426489802092e-15	380
1.0	1.4	1.7900348845554535e-15	390
1.0	1.4	1.791778576616283e-15	400
1.0	1.4	1.793569397031413e-15	410
1.0	1.4	1.795403180717142e-15	420
1.0	1.4	1.7972759593291533e-15	430
1.0	1.4	1.7991839849298184e-15	440
1.0	1.4	1.8011237451864343e-15	450
1.0	1.4	1.8030919715316262e-15	460
1.0	1.4	1.8050856415760683e-15	470
1.0	1.4	1.8071019769164987e-15	480
1.0	1.4	1.8091384373362218e-15	490
1.0	1.4	1.8111927122559293e-15	500
1.0	1.4	1.81326271016322e-15	510
1.0	1.4	1.8153465466313884e-15	520
1.0	1.4	1.817442531432599e-15	530
1.0	1.4	1.819549155157776e-15	540
1.0	1.4	1.8216650756747123e-15	550
1.0	1.4	1.823789104686448e-15	560
1.0	1.4	1.8259201945928076e-15	570
1.0	1.4	1.8280574258082815e-15	580
1.0	1.4	1.8301999946478336e-15	590
1.0	1.4	1.8323472018580782e-15	600
1.0	1.4	1.8344984418432165e-15	610
1.0	1.4	1.8366531926126267e-15	620
1.0	1.4	1.8388110064590304e-15	630
1.0	1.4	1.840971501362124e-15	640
1.0	1.4	1.8431343531017005e-15	650
1.0	1.4	1.8452992880562767e-15	660
1.0	1.4	1.8474660766572677e-15	670
1.0	1.4	1.8496345274647754e-15	680
1.0	1.4	1.8518044818284697e-15	690
1.0	1.4	1.8539758090956027e-15	700
1.0	1.4	1.8561484023278093e-15	710
1.0	1.4	1.858322174488547e-15	720
1.0	1.4	1.8604970550638696e-15	730
1.0	1.4	1.8626729870805297e-15	740
1.0	1.4	1.8648499244867927e-15	750
1.0	1.4	1.86702782986327e-15	760
1.0	1.4	1.8692066724328195e-15	770
1.0	1.4	1.8713864263405516e-15	780
1.0	1.4	1.8735670691769616e-15	790
1.0	1.4	1.8757485807191363e-15	800
1.0	1.4	1.8779309418669123e-15	810
1.0	1.4	1.880114133752702e-15	820
1.0	1.4	1.882298137005488e-15	830
1.0	1.4	1.884482931151178e-15	840
1.0	1.4	1.8866684941330768e-15	850
1.0	1.4	1.888854801937747e-15	860
1.0	1.4	1.8910418283129414e-15	870
1.0	1.4	1.893229544565541e-15	880
1.0	1.4	1.895417919428666e-15	890
1.0	1.4	1.897606918988274e-15	900
1.0	1.4	1.89979650666044e-15	910
1.0	1.4	1.9019866432116474e-15	920
1.0	1.4	1.9041772868150828e-15	930
1.0	1.4	1.906368393136848e-15	940
1.0	1.4	1.9085599154465927e-15	950
1.0	1.4	1.9107518047478286e-15	960
1.0	1.4	1.9129440099236706e-15	970
1.0	1.4	1.9151364778943256e-15	980
1.0	1.4	1.9173291537830985e-15	990
1.0	1.4	1.9195219810881422e-15	1000
1.0	1.4	1.921714901857513e-15	1010
1.0	1.4	1.923907856865479e-15	1020
1.0	1.4	1.9261007857882785e-15	1030
1.0	1.4	1.928293627377875e-15	1040
1.0	1.4	1.9304863196324234e-15	1050
1.0	1.4	1.932678799962392e-15	1060
1.0	1.4	1.9348710053515196e-15	1070
1.0	1.4	1.937062872511892e-15	1080
1.0	1.4	1.9392543380326035e-15	1090
1.0	1.4	1.941445338521583e-15	1100
1.0	1.4	1.943635810740308e-15	1110
1.0	1.4	1.9458256917311473e-15	1120
1.0	1.4	1.948014918937269e-15	1130
1.0	1.4	1.9502034303150377e-15	1140
1.0	1.4	1.952391164438894e-15	1150
1.0	1.4	1.9545780605988368e-15	1160
1.0	1.4	1.9567640588905463e-15	1170
1.0	1.4	1.9589491002983576e-15	1180
1.0	1.4	1.961133126771245e-15	1190
1.0	1.4	1.9633160812919755e-15	1200
1.0	1.4	1.9654979079397238e-15	1210
1.0	1.4	1.9676785519463422e-15	1220
1.0	1.4	1.9698579597465457e-15	1230
1.0	1.4	1.97203607902227e-15	1240
1.0	1.4	1.9742128587414648e-15	1250
1.0	1.4	1.976388249191593e-15	1260
1.0	1.4	1.9785622020081002e-15	1270
1.0	1.4	1.980734670198123e-15	1280
1.0	1.4	1.98290560815968e-15	1290
1.0	1.4	1.9850749716966458e-15	1300
1.0	1.4	1.987242718029717e-15	1310
1.0	1.4	1.9894088058036457e-15	1320
1.0	1.4	1.991573195090978e-15	1330
1.0	1.4	1.993735847392521e-15	1340
1.0	1.4	1.995896725634777e-15	1350
1.0	1.4	1.9980557941645458e-15	1360
1.0	1.4	2.000213018740941e-15	1370
1.0	1.4	2.0023683665249586e-15	1380
1.0	1.4	2.004521806066872e-15	1390
1.0	1.4	2.006673307291549e-15	1400
1.0	1.4	2.008822841481942e-15	1410
1.0	1.4	2.0109703812608742e-15	1420
1.0	1.4	2.01311590057129e-15	1430
1.0	1.4	2.0152593746551282e-15	1440
1.0	1.4	2.017400780030942e-15	1450
1.0	1.4	2.0195400944704208e-15	1460
1.0	1.4	2.021677296973929e-15	1470
1.0	1.4	2.02381236774518e-15	1480
1.0	1.4	2.025945288165157e-15	1490
1.0	1.4	2.028076040765393e-15	1500
1.0	1.4	2.0302046092007037e-15	1510
1.0	1.4	2.032330978221454e-15	1520
1.0	1.4	2.0344551336454793e-15	1530
1.0	1.4	2.0365770623296926e-15	1540
1.0	1.4	2.0386967521414848e-15	1550
1.0	1.4	2.0408141919299937e-15	1560
1.0	1.4	2.0429293714972714e-15	1570
1.0	1.4	2.045042281569446e-15	1580
1.0	1.4	2.0471529137679093e-15	1590
1.0	1.6	1.589645102257431e-15	200
1.0	1.6	1.5957628952204168e-15	210
1.0	1.6	1.6017303182707193e-15	220
1.0	1.6	1.6075631695589e-15	230
1.0	1.6	1.6132751668580863e-15	240
1.0	1.6	1.6188782643033979e-15	250
1.0	1.6	1.6243828752477331e-15	260
1.0	1.6	1.6297980355188491e-15	270
1.0	1.6	1.6351315320026397e-15	280
1.0	1.6	1.6403900133187617e-15	290
1.0	1.6	1.6455790928178007e-15	300
1.0	1.6	1.65070344927176e-15	310
1.0	1.6	1.6557669272899388e-15	320
1.0	1.6	1.6607726374007513e-15	330
1.0	1.6	1.665723054600745e-15	340
1.0	1.6	1.6706201137072904e-15	350
1.0	1.6	1.67546529982831e-15	360
1.0	1.6	1.6802597324987361e-15	370
1.0	1.6	1.6850042423967446e-15	380
1.0	1.6	1.6896994399528728e-15	390
1.0	1.6	1.6943457755455328e-15	400
1.0	1.6	1.6989435913055215e-15	410
1.0	1.6	1.7034931648163427e-15	420
1.0	1.6	1.7079947451939544e-15	430
1.0	1.6	1.7124485821636474e-15	440
1.0	1.6	1.7168549488316453e-15	450
1.0	1.6	1.7212141588841445e-15	460
1.0	1.6	1.725526578947087e-15	470
1.0	1.6	1.7297926368146997e-15	480
1.0	1.6	1.7340128262118298e-15	490
1.0	1.6	1.738187708700567e-15	500
1.0	1.6	1.74231791328101e-15	510
1.0	1.6	1.746404134173105e-15	520
1.0	1.6	1.7504471272041018e-15	530
1.0	1.6	1.7544477051665997e-15	540
1.0	1.6	1.7584067324564812e-15	550
1.0	1.6	1.7623251192492486e-15	560
1.0	1.6	1.7662038154276183e-15	570
1.0	1.6	1.7700438044328867e-15	580
1.0	1.6	1.7738460971773213e-15	590
1.0	1.6	1.7776117261244548e-15	600
1.0	1.6	1.781341739618261e-15	610
1.0	1.6	1.7850371965203306e-15	620
1.0	1.6	1.788699161196017e-15	630
1.0	1.6	1.792328698875479e-15	640
1.0	1.6	1.795926871403421e-15	650
1.0	1.6	1.799494733381517e-15	660
1.0	1.6	1.8030333286998573e-15	670
1.0	1.6	1.8065436874477716e-15	680
1.0	1.6	1.810026823189922e-15	690
1.0	1.6	1.8134837305903466e-15	700
1.0	1.6	1.8169153833648156e-15	710
1.0	1.6	1.820322732540514e-15	720
1.0	1.6	1.8237067050012866e-15	730
1.0	1.6	1.827068202296422e-15	740
1.0	1.6	1.8304080996911582e-15	750
1.0	1.6	1.8337272454376076e-15	760
1.0	1.6	1.8370264602454774e-15	770
1.0	1.6	1.8403065369329454e-15	780
1.0	1.6	1.8435682402390217e-15	790
1.0	1.6	1.846812306779799e-15	800
1.0	1.6	1.8500394451322956e-15	810
1.0	1.6	1.8532503360305e-15	820
1.0	1.6	1.856445632659604e-15	830
1.0	1.6	1.8596259610354026e-15	840
1.0	1.6	1.8627919204569635e-15	850
1.0	1.6	1.8659440840217156e-15	860
1.0	1.6	1.869082999193051e-15	870
1.0	1.6	1.872209188411561e-15	880
1.0	1.6	1.875323149741766e-15	890
1.0	1.6	1.878425357547145e-15	900
1.0	1.6	1.8815162631869485e-15	910
1.0	1.6	1.8845962957290086e-15	920
1.0	1.6	1.8876658626733854e-15	930
1.0	1.6	1.890725350682324e-15	940
1.0	1.6	1.8937751263124857e-15	950
1.0	1.6	1.896815536745951e-15	960
1.0	1.6	1.899846910516921e-15	970
1.0	1.6	1.9028695582314758e-15	980
1.0	1.6	1.905883773278076e-15	990
1.0	1.6	1.9088898325268775e-15	1000
1.0	1.6	1.9118879970162066e-15	1010
1.0	1.6	1.9148785126247816e-15	1020
1.0	1.6	1.9178616107285806e-15	1030
1.0	1.6	1.920837508841392e-15	1040
1.0	1.6	1.9238064112383505e-15	1050
1.0	1.6	1.92676850956184e-15	1060
1.0	1.6	1.9297239834094196e-15	1070
1.0	1.6	1.932673000903426e-15	1080
1.0	1.6	1.9356157192421382e-15	1090
1.0	1.6	1.9385522852324094e-15	1100
1.0	1.6	1.94148283580382e-15	1110
1.0	1.6	1.944407498504438e-15	1120
1.0	1.6	1.9473263919783763e-15	1130
1.0	1.6	1.950239626425353e-15	1140
1.0	1.6	1.953147304042571e-15	1150
1.0	1.6	1.956049519449187e-15	1160
1.0	1.6	1.9589463600937734e-15	1170
1.0	1.6	1.9618379066451165e-15	1180
1.0	1.6	1.9647242333667772e-15	1190
1.0	1.6	1.967605408475833e-15	1200
1.0	1.6	1.9704814944862214e-15	1210
1.0	1.6	1.9733525485371635e-15	1220
1.0	1.6	1.9762186227070833e-15	1230
1.0	1.6	1.9790797643135067e-15	1240
1.0	1.6	1.9819360161993923e-15	1250
1.0	1.6	1.984787417006331e-15	1260
1.0	1.6	1.987634001435116e-15	1270
1.0	1.6	1.990475800494055e-15	1280
1.0	1.6	1.9933128417355764e-15	1290
1.0	1.6	1.9961451494814494e-15	1300
1.0	1.6	1.998972745037152e-15	1310
1.0	1.6	2.0017956468957226e-15	1320
1.0	1.6	2.0046138709315798e-15	1330
1.0	1.6	2.0074274305846438e-15	1340
1.0	1.6	2.0102363370352083e-15	1350
1.0	1.6	2.0130405993699166e-15	1360
1.0	1.6	2.0158402247391825e-15	1370
1.0	1.6	2.018635218506506e-15	1380
1.0	1.6	2.0214255843899023e-15	1390
1.0	1.6	2.024211324595897e-15	1400
1.0	1.6	2.026992439946345e-15	1410
1.0	1.6	2.0297689299984073e-15	1420
1.0	1.6	2.032540793157987e-15	1430
1.0	1.6	2.0353080267869245e-15	1440
1.0	1.6	2.038070627304212e-15	1450
1.0	1.6	2.0408285902815255e-15	1460
1.0	1.6	2.0435819105333094e-15	1470
1.0	1.6	2.046330582201694e-15	1480
1.0	1.6	2.049074598836445e-15	1490
1.0	1.6	2.0518139534702218e-15	1500
1.0	1.6	2.05454863868933e-15	1510
1.0	1.6	2.057278646700215e-15	1520
1.0	1.6	2.060003969391858e-15	1530
1.0	1.6	2.062724598394322e-15	1540
1.0	1.6	2.065440525133584e-15	1550
1.0	1.6	2.068151740882875e-15	1560
1.0	1.6	2.070858236810673e-15	1570
1.0	1.6	2.0735600040255336e-15	1580
1.0	1.6	2.0762570336178846e-15	1590
1.0	1.8	1.7493176730051102e-15	200
1.0	1.8	1.75384386941948e-15	210
1.0	1.8	1.7582056422829696e-15	220
1.0	1.8	1.7624364084377465e-15	230
1.0	1.8	1.7665643177836309e-15	240
1.0	1.8	1.7706130822852096e-15	250
1.0	1.8	1.7746026223819842e-15	260
1.0	1.8	1.7785495800319538e-15	270
1.0	1.8	1.7824677359291973e-15	280
1.0	1.8	1.786368358639947e-15	290
1.0	1.8	1.7902605054306943e-15	300
1.0	1.8	1.794151288305924e-15	310
1.0	1.8	1.798046114058323e-15	320
1.0	1.8	1.801948903738596e-15	330
1.0	1.8	1.805862294632212e-15	340