 Comment line
 
          138 atoms
           0 bonds
           0 angles
           0 dihedrals
           0 impropers
 
           2 atom types
           0 bond types
           0 angle types
           0 dihedral types
           0 improper types
 
  -500   500      xlo xhi
  -5000   500      ylo yhi
  -500   500      zlo zhi
  0.0 0.0 0.0 xy xz yz
 
 Atoms

1	2	-1.098	-4.277023998120313	1.183139127872823	-1.0237409284302341
2	1	2.196	-0.5720669981203127	-0.2987518721271771	-3.948550928430234
3	2	-1.098	-2.2374839981203127	0.520235127872823	-3.859680928430234
4	2	-1.098	-0.09568699812031266	-2.070220872127177	-3.8967209284302338
5	1	2.196	-0.5792879981203127	-0.3142888721271771	-0.544442928430234
6	2	-1.098	-2.3736739981203128	-0.26113987212717704	-1.3858309284302341
7	2	-1.098	-1.2816539981203126	1.349089127872823	0.20851307156976592
8	2	-1.098	-0.30935899812031264	-2.140220872127177	-1.2160009284302342
9	1	2.196	-2.8449539981203125	-2.685650872127177	1.4521090715697658
10	1	2.196	-0.35840799812031265	-1.414000872127177	2.3208190715697663
11	2	-1.098	-1.7532139981203125	-1.1048808721271772	0.906556071569766
12	2	-1.098	-0.5696529981203127	0.503800127872823	2.6724290715697663
13	2	-1.098	0.2717530018796873	-3.011310872127177	1.5072290715697658
14	2	-1.098	-1.9114939981203127	-2.372180872127177	2.9969290715697663
15	2	-1.098	1.0759010018796873	0.4476901278728229	-4.381350928430234
16	1	2.196	-3.0526239981203127	1.271459127872823	-2.3666809284302337
17	1	2.196	-0.8749539981203127	3.197609127872823	-0.530180928430234
18	2	-1.098	-2.0550539981203126	2.840099127872823	-1.9015709284302342
19	2	-1.098	0.9091060018796873	2.2391491278728233	-0.4894119284302341
20	1	2.196	-3.4963939981203125	0.08480282787282294	0.24316007156976593
21	1	2.196	-1.6725139981203125	2.0551791278728233	2.331299071569766
22	2	-1.098	-3.1471139981203127	1.131889127872823	1.800059071569766
23	2	-1.098	-4.151113998120313	-1.5922608721271772	0.7783290715697659
24	2	-1.098	1.4456360018796874	2.058729127872823	2.1516890715697663
25	2	-1.098	-0.7346309981203127	2.520949127872823	3.874249071569766
26	2	-1.098	0.42711400187968734	-4.4633608721271765	-1.7243609284302341
27	2	-1.098	2.212546001879687	-1.5069608721271772	-2.895040928430234
28	1	2.196	0.9317230018796873	-2.8695208721271768	-2.500120928430234
29	1	2.196	2.6315360018796876	-1.4039508721271772	0.3747420715697659
30	2	-1.098	1.9531660018796875	-2.871290872127177	-0.685964928430234
31	2	-1.098	2.6268360018796875	0.19660012787282297	-0.797744928430234
32	1	2.196	-0.05172599812031266	-3.717090872127177	-0.16725292843023407
33	1	2.196	2.9458460018796875	-0.756782872127177	3.282029071569766
34	2	-1.098	3.1808060018796875	-2.1752308721271767	2.1223990715697663
35	2	-1.098	-1.8702839981203125	-3.752080872127177	0.29687507156976595
36	2	-1.098	3.1670660018796872	0.07633712787282294	1.543709071569766
37	2	-1.098	2.4484860018796875	0.724012127872823	4.287859071569765
38	1	2.196	2.0542260018796874	0.35172712787282295	-2.708090928430234
39	1	2.196	1.9569760018796873	3.548179127872823	-1.5088609284302341
40	2	-1.098	2.4521360018796874	2.156969127872823	-2.649130928430234
41	2	-1.098	0.09253526187968734	0.15357912787282296	-2.149390928430234
42	1	2.196	2.3336760018796876	1.583359127872823	0.621634071569766
43	2	-1.098	3.1547460018796873	3.1400491278728233	-0.12644092843023408
44	2	-1.098	0.8192890018796873	-0.661828872127177	0.733660071569766
45	1	2.196	0.7868600018796873	1.2985891278728228	3.673619071569766
46	2	-1.098	1.1519860018796875	-1.0373308721271772	3.372629071569766
47	2	-1.098	0.39941000187968734	4.441539127872823	-1.391040928430234
48	2	-1.098	-1.4336739981203126	3.543269127872823	1.2448290715697659
49	2	-1.098	-8.815290692532875	27.65236913647275	-1.7678803058776562
50	2	-1.098	-8.394090692532876	27.084739136472752	1.951679694122344
51	2	-1.098	-8.680900692532875	31.95206913647275	-0.39100530587765614
52	2	-1.098	-8.497180692532876	31.62146913647275	2.7998696941223438
53	1	2.196	-5.4071206925328745	24.58618913647275	-3.799490305877656
54	2	-1.098	-6.565550692532875	27.95535913647275	-4.7392603058776555
55	2	-1.098	-4.446080692532875	23.02924913647275	-3.6587803058776562
56	1	2.196	-6.0039906925328745	24.894149136472752	-0.5438603058776561
57	2	-1.098	-7.170220692532874	25.196299136472753	-3.5520303058776563
58	2	-1.098	-7.184930692532874	26.15901913647275	-0.9584123058776561
59	2	-1.098	-5.169300692532874	23.50981913647275	-1.4352103058776562
60	1	2.196	-5.347270692532875	24.379859136472753	2.251339694122344
61	2	-1.098	-6.714090692532874	23.96971913647275	0.9452606941223438
62	2	-1.098	-6.196760692532875	27.93538913647275	4.002229694122344
63	2	-1.098	-3.9726706925328745	23.20717913647275	2.0209796941223437
64	1	2.196	-6.815940692532875	24.561189136472752	4.8016096941223445
65	2	-1.098	-6.447220692532874	25.55708913647275	3.197519694122344
66	2	-1.098	-5.754080692532875	23.25071913647275	3.863559694122344
67	1	2.196	-6.2548606925328745	28.73080913647275	-6.313830305877656
68	2	-1.098	-7.618680692532875	29.95927233647275	-5.9302303058776555
69	2	-1.098	-2.3749206925328745	28.692069136472753	-8.020870305877656
70	1	2.196	-5.554320692532874	29.11649313647275	-3.652200305877656
71	2	-1.098	-4.4479206925328745	28.06767913647275	-6.708880305877655
72	2	-1.098	-6.862760692532874	30.45393513647275	-3.509000305877656
73	2	-1.098	-4.154900692532874	27.79696913647275	-3.657550305877656
74	1	2.196	-7.514770692532875	26.887839136472753	-2.810130305877656
75	1	2.196	-5.444670692532875	29.025689136472753	-0.6047673058776561
76	2	-1.098	-6.415280692532875	28.22440913647275	-2.143080305877656
77	2	-1.098	-6.7872606925328745	30.48146213647275	-0.6159103058776562
78	2	-1.098	-4.033980692532874	27.73791913647275	-0.7934863058776561
79	1	2.196	-8.211530692532875	27.61367913647275	0.09039769412234383
80	1	2.196	-5.392040692532874	28.80982913647275	2.446369694122344
81	2	-1.098	-6.3513306925328745	28.073389136472752	0.7655336941223438
82	2	-1.098	-6.5336006925328745	30.266315136472752	2.427179694122344
83	2	-1.098	-3.9848506925328744	27.55219913647275	2.277599694122344
84	1	2.196	-7.939840692532875	27.174989136472753	3.735509694122344
85	1	2.196	-5.2037606925328745	28.60851913647275	5.5888896941223445
86	2	-1.098	-8.422530692532876	29.05034913647275	4.109239694122344
87	2	-1.098	-6.514860692532874	30.04046750647275	5.528959694122344
88	2	-1.098	-3.9990206925328744	27.070919136472753	5.325119694122344
89	2	-1.098	-8.296770692532876	25.75045913647275	4.870559694122345
90	2	-1.098	-5.356870692532874	27.79811913647275	7.310749694122344
91	1	2.196	-6.1247206925328745	33.360859136472754	-6.708850305877656
92	2	-1.098	-4.536060692532875	32.46534913647275	-6.3884003058776555
93	1	2.196	-7.985520692532874	31.54712913647275	-5.073160305877655
94	1	2.196	-5.617810692532875	33.56379913647275	-3.3372803058776563
95	2	-1.098	-7.829240692532875	32.52587913647275	-6.7478003058776554
96	2	-1.098	-6.595450692532874	32.84167913647275	-4.7976303058776555
97	2	-1.098	-4.360850692532875	32.17942913647275	-3.4189503058776562
98	1	2.196	-7.889350692532875	31.39531913647275	-1.9893803058776562
99	1	2.196	-5.672060692532875	33.595659136472754	-0.34058130587765617
100	2	-1.098	-6.617880692532875	32.84899913647275	-1.9437903058776562
101	2	-1.098	-8.915910692532876	31.82229913647275	-3.5514903058776564
102	2	-1.098	-6.343640692532874	35.41522913647275	-0.034607605877656156
103	2	-1.098	-4.191310692532874	32.16946913647275	-0.5490873058776561
104	1	2.196	-7.882770692532874	31.06607913647275	1.063889694122344
105	1	2.196	-5.566720692532875	33.19508913647275	2.5724396941223437
106	2	-1.098	-6.481870692532874	32.57251913647275	1.1056296941223438
107	2	-1.098	-8.681580692532876	29.44072213647275	0.5976666941223439
108	2	-1.098	-6.603660692532874	34.828759136472755	2.561499694122344
109	2	-1.098	-4.126060692532874	31.889359136472752	2.541199694122344
110	1	2.196	-7.531420692532874	30.70865513647275	4.090379694122344
111	1	2.196	-5.171430692532875	33.22993913647275	5.509129694122344
112	2	-1.098	-6.339090692532874	32.42795913647275	4.283549694122344
113	2	-1.098	-3.9661206925328747	31.79790913647275	5.453169694122344
114	2	-1.098	-4.347820692532874	36.07095913647275	5.598529694122345
115	2	-1.098	-4.427710692532875	34.01086913647275	7.050849694122344
116	2	-1.098	-4.753490692532875	34.59314913647275	-4.627190305877655
117	1	2.196	-3.945460692532875	38.35501913647275	0.25740269412234384
118	2	-1.098	-3.973670692532875	36.61747913647275	-0.4847933058776562
119	1	2.196	-6.154500692532874	36.26434913647275	1.5403596941223439
120	2	-1.098	-5.641890692532875	38.02609913647275	1.007589694122344
121	2	-1.098	-4.4167406925328745	36.19711913647275	2.3647896941223436
122	2	-1.098	-2.1195906925328747	37.02833913647275	6.948259694122345
123	2	-1.098	-3.4042506925328744	21.668989136472753	-0.44563530587765615
124	2	-1.098	-3.0245406925328746	21.28221913647275	3.0138696941223437
125	1	2.196	-0.9298746925328747	24.44460913647275	-6.8820903058776555
126	2	-1.098	-2.3258306925328744	25.99254913647275	-7.063480305877656
127	2	-1.098	0.3709583074671252	23.14634913647275	-6.8921303058776555
128	1	2.196	-1.1274606925328747	24.53523913647275	-3.945640305877656
129	2	-1.098	-1.9418906925328747	23.694239136472753	-5.4534103058776555
130	2	-1.098	-2.4763306925328745	25.90860913647275	-3.932750305877656
131	2	-1.098	0.39059430746712526	23.26928913647275	-4.045960305877656
132	1	2.196	-3.6623206925328744	22.544549136472753	-2.049880305877656
133	1	2.196	-1.0768706925328748	24.45310913647275	-0.8899653058776562
134	2	-1.098	-2.0632306925328745	23.54206913647275	-2.330390305877656
135	2	-1.098	-2.5107106925328746	25.82409913647275	-0.8518833058776561
136	2	-1.098	0.34774430746712526	23.142649136472752	-1.1629103058776562
137	1	2.196	-2.6409906925328746	21.933629136472753	1.2714296941223437
138	1	2.196	-0.9006566925328747	24.525879136472753	2.131899694122344
139	2	-1.098	-1.8309706925328748	23.58010913647275	0.6237786941223439
140	2	-1.098	-2.1872706925328744	25.88021913647275	2.134579694122344
141	2	-1.098	0.5565363074671252	23.36061913647275	1.7005696941223438
142	1	2.196	-3.6168406925328744	22.81826913647275	3.934809694122344
143	1	2.196	-0.8433196925328748	24.10269913647275	5.147479694122344
144	2	-1.098	-1.8082606925328748	23.51089913647275	3.445689694122344
145	2	-1.098	-2.018130692532875	25.67055913647275	5.120559694122345
146	2	-1.098	0.24683330746712523	22.62876913647275	4.997809694122345
147	2	-1.098	-2.9891406925328745	23.407369136472752	5.683429694122344
148	2	-1.098	-3.3046206925328745	25.917579136472753	7.686129694122345
149	1	2.196	1.3362593074671252	28.52190913647275	-10.041950305877656
150	1	2.196	-1.3424306925328748	27.07390913647275	-8.273430305877655
151	1	2.196	-1.2518006925328748	29.39563413647275	-6.583000305877656
152	2	-1.098	-0.37964869253287475	27.847759136472753	-9.648110305877657
153	2	-1.098	-2.6117406925328748	30.73095113647275	-6.526090305877656
154	2	-1.098	1.9138193074671253	26.256469136472752	-6.946300305877656
155	1	2.196	-3.4848806925328746	26.83995913647275	-5.452900305877655
156	1	2.196	-1.2644106925328749	29.01240913647275	-3.7295603058776563
157	2	-1.098	-2.1494306925328748	28.316719136472752	-5.244740305877656
158	2	-1.098	-4.874730692532874	25.560059136472752	-5.211400305877656
159	2	-1.098	-2.5186506925328747	30.458841136472753	-3.755950305877656
160	2	-1.098	0.16086930746712524	27.59660913647275	-3.893160305877656
161	1	2.196	-3.2619006925328744	26.748659136472753	-2.363810305877656
162	1	2.196	-0.9969406925328748	28.97985913647275	-0.7495023058776562
163	2	-1.098	-1.8545606925328748	28.062129136472752	-2.243000305877656
164	2	-1.098	-4.876660692532875	25.73249913647275	-2.316750305877656
165	2	-1.098	-2.311310692532875	30.396127136472753	-0.6107143058776562
166	2	-1.098	0.43519130746712525	27.764329136472753	-0.8577933058776561
167	1	2.196	-3.1865006925328747	26.746419136472753	0.7262206941223438
168	1	2.196	-0.8769386925328748	28.81665913647275	2.277799694122344
169	2	-1.098	-1.7966806925328749	27.97959913647275	0.7317426941223438
170	2	-1.098	-4.666010692532875	25.464409136472753	0.7357276941223438
171	2	-1.098	-2.1548306925328746	30.38640713647275	2.287029694122344
172	2	-1.098	0.45820730746712524	27.46660913647275	2.2092896941223437
173	1	2.196	-3.0030306925328745	26.62409913647275	3.750529694122344
174	1	2.196	-0.7057296925328747	28.87953913647275	5.341159694122345
175	2	-1.098	-1.8224206925328748	28.100499136472752	3.8327996941223437
176	2	-1.098	-3.9749306925328742	24.89300913647275	3.831749694122344
177	2	-1.098	-1.7555206925328748	30.43050613647275	5.357839694122344
178	2	-1.098	0.3342513074671252	27.38358913647275	5.113949694122344
179	1	2.196	-3.6740306925328747	25.12476913647275	6.081259694122345
180	1	2.196	-3.4580506925328747	27.74863913647275	7.780759694122344
181	2	-1.098	-1.5203206925328747	28.23662913647275	6.936629694122344
182	2	-1.098	-5.484000692532875	24.75991913647275	6.036089694122344
183	2	-1.098	-1.5417506925328748	30.98838513647275	8.260369694122344
184	2	-1.098	0.9192963074671252	29.53487713647275	9.453269694122344
185	2	-1.098	1.2046893074671252	30.35483813647275	-9.956510305877655
186	1	2.196	-3.8791806925328745	29.70574213647275	-7.890720305877656
187	1	2.196	-1.8855406925328748	32.05841913647275	-7.947650305877656
188	2	-1.098	-3.2442906925328745	31.143299136472752	-8.801260305877655
189	2	-1.098	-5.707390692532875	29.727542136472753	-7.895530305877656
190	2	-1.098	-2.1616206925328747	33.916779136472755	-7.262310305877656
191	2	-1.098	-0.5554706925328747	30.56910313647275	-7.944100305877655
192	1	2.196	-3.6543606925328747	31.42963913647275	-5.014100305877656
193	1	2.196	-1.1983206925328749	33.39082913647275	-3.7124203058776564
194	2	-1.098	-2.5190606925328747	33.04576913647275	-5.050520305877655
195	2	-1.098	-4.9383006925328745	29.965436036472752	-5.2711903058776555
196	2	-1.098	-2.3529606925328745	34.986999136472754	-3.487110305877656
197	2	-1.098	0.21139130746712523	32.117819136472754	-3.6782403058776563
198	1	2.196	-3.3419906925328746	31.23537913647275	-2.015850305877656
199	1	2.196	-0.9682806925328749	33.48650913647275	-0.7323533058776561
200	2	-1.098	-1.997520692532875	32.60825913647275	-2.087710305877656
201	2	-1.098	-4.638970692532874	29.95844183647275	-2.1373003058776563
202	2	-1.098	-2.3264706925328746	34.88436913647275	-0.5340943058776562
203	2	-1.098	0.34641030746712526	32.10671913647275	-0.8084413058776562
204	1	2.196	-3.2472806925328745	31.218819136472753	0.8798736941223438
205	1	2.196	-1.042890692532875	33.39260913647275	2.268899694122344
206	2	-1.098	-1.9858906925328748	32.687239136472755	0.7214876941223438
207	2	-1.098	-4.420620692532874	29.697646136472752	0.7935796941223439
208	2	-1.098	-2.3494806925328744	34.85748913647275	2.567109694122344
209	2	-1.098	0.35446030746712526	32.09646913647275	2.1950696941223438
210	1	2.196	-2.9861106925328746	31.00605613647275	3.934909694122344
211	1	2.196	-0.8269446925328747	33.54325913647275	5.187689694122344
212	2	-1.098	-1.7720906925328748	32.54532913647275	3.8308996941223437
213	2	-1.098	-4.249400692532874	29.51730913647275	3.974419694122344
214	2	-1.098	0.11974280746712525	36.17789913647275	5.053879694122345
215	2	-1.098	0.6119473074671253	32.28829913647275	5.318559694122344
216	1	2.196	-2.7897506925328748	30.99852613647275	6.872329694122344
217	1	2.196	-0.9098626925328748	33.19080913647275	8.127149694122345
218	2	-1.098	-1.8510206925328747	32.70241913647275	6.629349694122344
219	2	-1.098	-3.7199106925328747	29.42109413647275	6.821159694122344
220	2	-1.098	-2.0702806925328745	34.62641913647275	8.414199694122344
221	2	-1.098	0.7207473074671253	32.378429136472754	8.132799694122344
222	2	-1.098	-0.5139496925328748	34.78303913647275	-5.1445703058776555
223	1	2.196	-3.4843306925328745	34.64159913647275	-6.034460305877656
224	1	2.196	-1.1688206925328748	36.40022913647275	-4.235900305877656
225	2	-1.098	-2.3788206925328748	36.10336913647275	-5.7420503058776555
226	2	-1.098	-5.119240692532874	34.83782913647275	-7.061560305877656
227	2	-1.098	0.5159723074671252	36.94050913647275	-3.542910305877656
228	1	2.196	-3.2756206925328746	35.65713913647275	-1.9521903058776562
229	1	2.196	-0.8954906925328747	38.18418913647275	-0.8283523058776562
230	2	-1.098	-1.9843306925328748	37.09013913647275	-2.262930305877656
231	2	-1.098	-4.608860692532875	34.394099136472754	-1.792230305877656
232	2	-1.098	-2.5145006925328746	39.05192913647275	-0.6652413058776562
233	2	-1.098	0.18916130746712523	36.57947913647275	-0.7757883058776561
234	1	2.196	-3.2512906925328746	35.51717913647275	1.0371696941223438
235	1	2.196	-1.0567306925328748	37.86428913647275	2.550909694122344
236	2	-1.098	-2.5004406925328744	37.36948913647275	1.2818796941223438
237	2	-1.098	-4.542660692532874	34.09292913647275	1.1122996941223438
238	2	-1.098	0.18272730746712523	36.40109913647275	2.2706996941223436
239	1	2.196	-3.356930692532875	35.658809136472755	4.052309694122345
240	1	2.196	-0.8967206925328748	37.62667913647275	5.629709694122345
241	2	-1.098	-2.0602806925328747	36.99556913647275	4.060859694122344
242	2	-1.098	-4.485760692532875	34.10141913647275	3.9484896941223435
243	2	-1.098	0.4687433074671252	37.44607913647275	6.957329694122344
244	1	2.196	-3.1544806925328746	35.46703913647275	7.082339694122345
245	2	-1.098	-2.2267306925328745	34.88326913647275	5.429029694122344
246	2	-1.098	1.3726693074671252	20.975939136472753	-1.1275603058776562
247	2	-1.098	2.0994293074671253	21.80154913647275	2.664309694122344
248	1	2.196	3.8798993074671255	23.48504913647275	-7.258150305877655
249	2	-1.098	2.821759307467125	24.278439136472752	-8.594800305877655
250	1	2.196	1.5510893074671253	22.39521913647275	-5.684880305877655
251	1	2.196	3.4610493074671256	24.62048913647275	-3.9537303058776563
252	2	-1.098	2.9518493074671253	21.936269136472752	-6.9779503058776555
253	2	-1.098	1.9865193074671252	25.882129136472752	-3.986900305877656
254	2	-1.098	2.9831393074671255	23.803309136472752	-5.506200305877655
255	1	2.196	1.2163793074671252	22.075239136472753	-2.591180305877656
256	1	2.196	3.3256093074671256	24.041639136472753	-1.0022913058776561
257	2	-1.098	2.6806793074671256	23.293259136472752	-2.749050305877656
258	2	-1.098	1.6415693074671251	21.23991913647275	-4.253320305877656
259	2	-1.098	2.0047493074671254	25.74099913647275	-0.9767703058776561
260	2	-1.098	5.041409307467125	23.21117913647275	-0.6555953058776561
261	1	2.196	0.7935703074671252	21.890569136472752	0.4518966941223438
262	1	2.196	2.5604293074671256	23.61094913647275	2.082239694122344
263	2	-1.098	2.4983393074671256	23.08626913647275	0.25278069412234383
264	2	-1.098	-0.9211006925328749	21.214009136472754	0.8201756941223438
265	2	-1.098	2.0665293074671256	25.52765913647275	2.017559694122344
266	2	-1.098	4.427639307467126	23.070739136472753	2.069059694122344
267	1	2.196	1.9512193074671251	22.107639136472752	4.552449694122345
268	1	2.196	3.555149307467125	24.382789136472752	5.592189694122344
269	2	-1.098	2.6057293074671253	23.807509136472753	3.9524296941223436
270	2	-1.098	2.2792393074671256	25.843279136472752	5.239919694122344
271	2	-1.098	3.036509307467125	22.598519136472753	5.959089694122344
272	2	-1.098	0.8132273074671252	27.56309913647275	8.151679694122345
273	1	2.196	1.722769307467125	25.72567913647275	-8.719790305877655
274	1	2.196	3.1401593074671252	28.919479136472752	-6.830300305877656
275	2	-1.098	1.8317193074671252	26.76984913647275	-10.287810305877656
276	2	-1.098	-0.26925269253287476	25.51627913647275	-8.350260305877656
277	2	-1.098	1.8856093074671252	30.481924136472752	-6.792940305877655
278	2	-1.098	4.500519307467125	27.65037913647275	-6.886880305877655
279	1	2.196	1.072789307467125	26.936559136472752	-5.418840305877656
280	1	2.196	3.464179307467125	29.04285913647275	-3.847930305877656
281	2	-1.098	2.3773493074671253	28.24260913647275	-5.285710305877656
282	2	-1.098	-0.20762069253287474	25.48463913647275	-5.420340305877656
283	2	-1.098	2.1008893074671255	30.414050136472753	-3.796900305877656
284	2	-1.098	5.031379307467126	27.87259913647275	-3.689480305877656
285	1	2.196	1.1808393074671253	26.747269136472752	-2.3849303058776563
286	1	2.196	3.4163293074671253	29.00517913647275	-0.8357203058776561
287	2	-1.098	2.775119307467125	27.93773913647275	-2.399530305877656
288	2	-1.098	-0.36635969253287476	25.48176913647275	-2.4297403058776563
289	2	-1.098	2.1367893074671254	30.41355113647275	-0.8499633058776561
290	2	-1.098	4.8018693074671255	27.640829136472753	-0.8202153058776561
291	1	2.196	1.3413393074671252	26.64030913647275	0.6234986941223438
292	1	2.196	3.3870393074671252	28.937309136472752	2.1308696941223437
293	2	-1.098	2.5998793074671256	28.04788913647275	0.5826086941223438
294	2	-1.098	-0.16113869253287477	25.44730913647275	0.5180376941223438
295	2	-1.098	2.189029307467125	30.383702136472753	2.192809694122344
296	2	-1.098	4.679809307467125	27.42628913647275	2.2020996941223436
297	1	2.196	1.2861393074671252	26.44473913647275	3.6143196941223437
298	1	2.196	3.3799093074671256	28.948649136472753	5.1182396941223445
299	2	-1.098	2.4884493074671252	28.05599913647275	3.702479694122344
300	2	-1.098	0.05750267746712524	25.04200913647275	3.6221896941223437
301	2	-1.098	2.3324093074671253	30.531191136472753	5.241259694122344
302	2	-1.098	4.729039307467126	27.52407913647275	4.966179694122344
303	1	2.196	1.1099093074671251	26.543439136472752	6.614089694122344
304	1	2.196	2.3587393074671255	28.84127913647275	8.457949694122345
305	2	-1.098	2.5699093074671255	28.05728913647275	6.547049694122344
306	2	-1.098	0.19505730746712524	24.926239136472752	6.499909694122344
307	2	-1.098	2.8302493074671253	30.573147136472752	7.739499694122344
308	2	-1.098	3.9571793074671255	27.92177913647275	8.612599694122345
309	1	2.196	1.0391533074671253	31.47025913647275	-8.438700305877656
310	1	2.196	3.1792793074671253	33.69358913647275	-6.793300305877656
311	2	-1.098	2.4807893074671252	32.60133913647275	-8.175130305877655
312	2	-1.098	-0.21040269253287475	27.76268913647275	-6.888380305877655
313	2	-1.098	1.5090993074671253	34.67672913647275	-6.959990305877656
314	2	-1.098	4.829299307467125	32.68765913647275	-6.556560305877656
315	1	2.196	1.1444793074671251	31.25246913647275	-5.265470305877655
316	1	2.196	3.3546793074671255	33.52486913647275	-3.810890305877656
317	2	-1.098	2.3129593074671253	32.771429136472754	-5.222900305877656
318	2	-1.098	-0.23636669253287473	29.91658813647275	-5.167220305877656
319	2	-1.098	2.3371593074671253	35.165119136472754	-3.645270305877656
320	2	-1.098	4.751479307467125	32.295849136472754	-3.800170305877656
321	1	2.196	1.1785093074671251	31.233189136472753	-2.3054103058776563
322	1	2.196	3.4881393074671254	33.437259136472754	-0.8132903058776562
323	2	-1.098	2.4671793074671253	32.73889913647275	-2.3053403058776563
324	2	-1.098	-0.21382469253287478	29.912356136472752	-2.2875303058776564
325	2	-1.098	2.0403193074671253	34.863789136472754	-0.7194053058776562
326	2	-1.098	4.8360293074671254	32.09290913647275	-0.8561483058776561
327	1	2.196	1.2186093074671251	31.268099136472753	0.6681366941223439
328	1	2.196	3.5226293074671253	33.47301913647275	2.072589694122344
329	2	-1.098	2.5017793074671255	32.59628913647275	0.5832036941223439
330	2	-1.098	-0.07983769253287476	29.83910313647275	0.7964836941223439
331	2	-1.098	2.368599307467125	35.00017913647275	2.120849694122344
332	2	-1.098	4.770309307467126	31.986679136472752	1.9173796941223438
333	1	2.196	1.2290493074671252	31.273349136472753	3.700129694122344
334	1	2.196	3.4212493074671255	33.41118913647275	4.990419694122345
335	2	-1.098	2.5288293074671255	32.66606913647275	3.509029694122344
336	2	-1.098	0.09417430746712524	29.74408713647275	3.7841396941223437
337	2	-1.098	2.1930093074671255	34.84445913647275	5.138899694122344
338	2	-1.098	4.667819307467125	32.00880913647275	5.193059694122344
339	1	2.196	1.4664593074671253	31.34498913647275	6.814129694122344
340	1	2.196	3.9532893074671254	34.20024913647275	7.693519694122345
341	2	-1.098	3.0114993074671252	32.77544913647275	6.692319694122344
342	2	-1.098	0.38227330746712523	29.77663013647275	6.843359694122344
343	2	-1.098	2.6123893074671254	35.50109913647275	7.718679694122344
344	2	-1.098	5.115029307467125	32.66848913647275	7.982329694122344
345	1	2.196	-0.6378206925328747	29.08417713647275	8.517599694122344
346	2	-1.098	-2.299110692532875	28.53861913647275	9.148109694122343
347	2	-1.098	-0.25367969253287476	32.92392913647275	-8.520670305877657
348	1	2.196	-0.21309969253287475	34.14590913647275	-6.912410305877656
349	1	2.196	1.8900593074671252	38.74405913647275	-2.807330305877656
350	2	-1.098	2.7476093074671253	38.14350913647275	-4.340600305877656
351	2	-1.098	-0.08051269253287477	32.35054913647275	-6.274250305877656
352	2	-1.098	5.0625193074671255	36.50929913647275	-3.6827203058776563
353	1	2.196	1.2288493074671252	35.693459136472754	-2.2494203058776563
354	1	2.196	3.841349307467125	37.89640913647275	-0.5772123058776562
355	2	-1.098	2.5570593074671253	37.08247913647275	-1.943230305877656
356	2	-1.098	-0.15277669253287476	34.396899136472754	-2.343150305877656
357	2	-1.098	3.1326393074671253	39.273649136472756	-1.5514603058776562
358	2	-1.098	5.229559307467126	36.65004913647275	-1.0066823058776562
359	1	2.196	1.1409093074671253	35.85218913647275	0.7250666941223438
360	1	2.196	3.6346293074671254	37.41992913647275	2.5794196941223437
361	2	-1.098	2.5711493074671252	37.22965913647275	0.7196126941223439
362	2	-1.098	-0.11193469253287475	34.38763913647275	0.7448936941223439
363	2	-1.098	4.948919307467126	37.52132913647275	1.1910996941223437
364	1	2.196	1.2249293074671253	35.604189136472755	3.696979694122344
365	2	-1.098	2.1886193074671256	37.206309136472754	3.655589694122344
366	2	-1.098	0.16426730746712526	34.14710913647275	3.519679694122344
367	2	-1.098	4.810429307467126	36.80519913647275	3.783149694122344
368	1	2.196	1.1748993074671252	35.80376913647275	6.6709796941223445
369	2	-1.098	0.07149480746712525	34.33684913647275	6.809049694122344
370	2	-1.098	0.21840430746712525	39.00816913647275	-2.099440305877656
371	2	-1.098	-0.3548416925328748	38.591029136472756	0.9650896941223439
372	2	-1.098	-0.5357756925328747	38.746739136472755	4.083579694122344
373	2	-1.098	5.005069307467125	25.534229136472753	-4.501350305877656
374	1	2.196	8.129199307467125	25.79129913647275	0.13045769412234384
375	2	-1.098	6.373609307467126	25.731419136472752	-0.7017223058776562
376	1	2.196	5.705529307467126	23.81819913647275	0.9879996941223439
377	2	-1.098	7.627589307467125	24.11923913647275	0.7327716941223439
378	2	-1.098	6.009809307467125	25.41604913647275	2.0745896941223436
379	2	-1.098	6.640039307467125	27.69533913647275	6.542089694122344
380	2	-1.098	6.133899307467125	30.28982313647275	-4.070360305877656
381	1	2.196	5.553499307467125	26.35324913647275	-6.066290305877656
382	1	2.196	7.023139307467125	28.63507913647275	-3.9507503058776563
383	2	-1.098	6.820619307467125	27.56825913647275	-5.459390305877656
384	2	-1.098	5.183219307467126	24.70751913647275	-6.926160305877656
385	2	-1.098	6.595949307467126	30.106256536472753	-0.9501503058776561
386	1	2.196	5.4133093074671255	26.58540913647275	-2.337290305877656
387	1	2.196	8.125829307467125	28.88378913647275	-1.0708803058776561
388	2	-1.098	6.989739307467126	27.601519136472753	-2.361830305877656
389	2	-1.098	4.132569307467126	25.231579136472753	-2.292020305877656
390	2	-1.098	7.132689307467126	32.35046913647275	0.5197896941223439
391	2	-1.098	8.959869307467125	27.20462913647275	-0.7065703058776561
392	1	2.196	5.383119307467125	26.556189136472753	0.6583196941223438
393	1	2.196	7.8932493074671255	28.79949913647275	2.291099694122344
394	2	-1.098	7.221559307467126	27.34339913647275	0.9843396941223439
395	2	-1.098	4.130249307467126	25.17917913647275	0.39634469412234385
396	2	-1.098	6.531089307467125	30.123122536472753	2.2054896941223436
397	1	2.196	5.518949307467126	26.428399136472752	3.630339694122344
398	1	2.196	7.347529307467125	28.71708913647275	5.2293496941223445
399	2	-1.098	7.028509307467125	27.588309136472752	3.622959694122344
400	2	-1.098	5.094279307467126	24.91536913647275	4.5584596941223445
401	2	-1.098	6.545499307467125	30.323320136472752	5.028179694122344
402	1	2.196	4.826109307467125	27.361959136472752	6.994899694122345
403	2	-1.098	4.233569307467126	25.57631913647275	6.875529694122345
404	2	-1.098	2.419369307467125	28.42291913647275	-8.487880305877656
405	1	2.196	5.560369307467125	31.59057913647275	-5.399900305877655
406	1	2.196	8.173339307467124	33.24671913647275	-3.6381203058776563
407	2	-1.098	7.249239307467126	32.42810913647275	-5.070390305877655
408	2	-1.098	4.156179307467125	29.996537336472752	-5.523490305877655
409	2	-1.098	7.313399307467125	34.83733913647275	-3.460530305877656
410	1	2.196	5.592459307467125	31.242399136472752	-2.3864903058776563
411	1	2.196	8.108159307467124	33.47474913647275	-0.5936303058776562
412	2	-1.098	7.042889307467125	32.46699913647275	-2.259030305877656
413	2	-1.098	4.261989307467125	29.93771913647275	-2.2239303058776563
414	2	-1.098	6.883839307467126	34.95457913647275	-0.7283803058776561
415	2	-1.098	9.244599307467125	33.56893913647275	-2.041740305877656
416	1	2.196	5.764559307467126	31.03883813647275	0.6330676941223439
417	1	2.196	7.910949307467125	33.999019136472754	2.679849694122344
418	2	-1.098	8.821469307467124	34.14270913647275	1.038639694122344
419	2	-1.098	4.368089307467125	29.74645113647275	0.6427196941223439
420	2	-1.098	6.5133693074671255	35.282869136472755	2.199289694122344
421	1	2.196	5.688909307467125	31.253289136472752	3.6304596941223437
422	2	-1.098	6.824029307467125	32.75620913647275	3.388069694122344
423	2	-1.098	4.2792993074671255	29.81557613647275	3.6540496941223437
424	2	-1.098	7.685959307467125	34.96616913647275	4.276629694122344
425	1	2.196	4.569929307467126	31.22410913647275	6.913109694122344
426	2	-1.098	4.665369307467126	29.418087136472753	6.535949694122344
427	1	2.196	3.4888293074671255	36.48751913647275	-4.532760305877655
428	2	-1.098	3.8555693074671256	34.85348913647275	-5.493370305877655
429	1	2.196	5.993589307467126	35.524359136472754	-2.430800305877656