1.0	0.6	2.6375008328266813e-15	200
1.0	0.6	2.628930405021486e-15	210
1.0	0.6	2.620978646873795e-15	220
1.0	0.6	2.6135860350505856e-15	230
1.0	0.6	2.606699563581288e-15	240
1.0	0.6	2.6002718199172154e-15	250
1.0	0.6	2.5942602769836117e-15	260
1.0	0.6	2.5886267263810973e-15	270
1.0	0.6	2.583336807362873e-15	280
1.0	0.6	2.5783596039298104e-15	290
1.0	0.6	2.573667292964049e-15	300
1.0	0.6	2.569234832604379e-15	310
1.0	0.6	2.5650396837858887e-15	320
1.0	0.6	2.561061560068035e-15	330
1.0	0.6	2.557282202187695e-15	340
1.0	0.6	2.553685174569155e-15	350
1.0	0.6	2.5502556815214336e-15	360
1.0	0.6	2.546980401182623e-15	370
1.0	0.6	2.5438473355046933e-15	380
1.0	0.6	2.5408456747516096e-15	390
1.0	0.6	2.5379656751318416e-15	400
1.0	0.6	2.5351985483152914e-15	410
1.0	0.6	2.532536361700815e-15	420
1.0	0.6	2.529971948406761e-15	430
1.0	0.6	2.5274988260547334e-15	440
1.0	0.6	2.5251111235067426e-15	450
1.0	0.6	2.5228035147983625e-15	460
1.0	0.6	2.520571159585502e-15	470
1.0	0.6	2.5184096494905086e-15	480
1.0	0.6	2.5163149597946658e-15	490
1.0	0.6	2.5142834059790214e-15	500
1.0	0.6	2.512311604664863e-15	510
1.0	0.6	2.5103964385487596e-15	520
1.0	0.6	2.508535024966222e-15	530
1.0	0.6	2.506724687752597e-15	540
1.0	0.6	2.504962932100633e-15	550
1.0	0.6	2.5032474221415064e-15	560
1.0	0.6	2.5015759610005433e-15	570
1.0	0.6	2.4999464731006834e-15	580
1.0	0.6	2.498356988506213e-15	590
1.0	0.6	2.4968056291169243e-15	600
1.0	0.6	2.4952905965387176e-15	610
1.0	0.6	2.4938101614709804e-15	620
1.0	0.6	2.492362654464271e-15	630
1.0	0.6	2.490946457913636e-15	640
1.0	0.6	2.489559999164007e-15	650
1.0	0.6	2.48820174461406e-15	660
1.0	0.6	2.486870194714341e-15	670
1.0	0.6	2.485563879763949e-15	680
1.0	0.6	2.4842813564181214e-15	690
1.0	0.6	2.483021204826408e-15	700
1.0	0.6	2.4817820263280113e-15	710
1.0	0.6	2.4805624416372356e-15	720
1.0	0.6	2.47936108945797e-15	730
1.0	0.6	2.478176625471549e-15	740
1.0	0.6	2.477007721647595e-15	750
1.0	0.6	2.475853065832075e-15	760
1.0	0.6	2.4747113615713227e-15	770
1.0	0.6	2.4735813281347987e-15	780
1.0	0.6	2.472461700703176e-15	790
1.0	0.6	2.4713512306918286e-15	800
1.0	0.6	2.470248686183037e-15	810
1.0	0.6	2.469152852443138e-15	820
1.0	0.6	2.4680625325036493e-15	830
1.0	0.6	2.4669765477878356e-15	840
1.0	0.6	2.4658937387664866e-15	850
1.0	0.6	2.4648129656287653e-15	860
1.0	0.6	2.4637331089558804e-15	870
1.0	0.6	2.4626530703870417e-15	880
1.0	0.6	2.4615717732687662e-15	890
1.0	0.6	2.460488163279922e-15	900
1.0	0.6	2.459401209026282e-15	910
1.0	0.6	2.458309902599363e-15	920
1.0	0.6	2.4572132600954973e-15	930
1.0	0.6	2.456110322091818e-15	940
1.0	0.6	2.4550001540767963e-15	950
1.0	0.6	2.4538818468335975e-15	960
1.0	0.6	2.452754516775158e-15	970
1.0	0.6	2.451617306230437e-15	980
1.0	0.6	2.4504693836818314e-15	990
1.0	0.6	2.4493099439540016e-15	1000
1.0	0.6	2.4481382083549117e-15	1010
1.0	0.6	2.4469534247700126e-15	1020
1.0	0.6	2.4457548677108506e-15	1030
1.0	0.6	2.4445418383195576e-15	1040
1.0	0.6	2.443313664330847e-15	1050
1.0	0.6	2.4420696999932907e-15	1060
1.0	0.6	2.440809325951754e-15	1070
1.0	0.6	2.439531949092937e-15	1080
1.0	0.6	2.4382370023560208e-15	1090
1.0	0.8	1.957829249627328e-15	200
1.0	0.8	1.952620102423287e-15	210
1.0	0.8	1.9476196359003533e-15	220
1.0	0.8	1.9427937689067164e-15	230
1.0	0.8	1.9381169022937257e-15	240
1.0	0.8	1.933570149340947e-15	250
1.0	0.8	1.929139864305698e-15	260
1.0	0.8	1.9248164365967813e-15	270
1.0	0.8	1.9205933157580114e-15	280
1.0	0.8	1.9164662327829645e-15	290
1.0	0.8	1.9124325854591767e-15	300
1.0	0.8	1.9084909586850282e-15	310
1.0	0.8	1.904640754410394e-15	320
1.0	0.8	1.9008819096044733e-15	330
1.0	0.8	1.8972146841920757e-15	340
1.0	0.8	1.89363950408402e-15	350
1.0	0.8	1.8901568472011524e-15	360
1.0	0.8	1.8867671627503014e-15	370
1.0	0.8	1.883470815979559e-15	380
1.0	0.8	1.880268052260534e-15	390
1.0	0.8	1.877158975663014e-15	400
1.0	0.8	1.8741435382492777e-15	410
1.0	0.8	1.871221537163697e-15	420
1.0	0.8	1.868392617267047e-15	430
1.0	0.8	1.865656277596162e-15	440
1.0	0.8	1.8630118803467548e-15	450
1.0	0.8	1.8604586614025423e-15	460
1.0	0.8	1.8579957416866314e-15	470
1.0	0.8	1.8556221388062874e-15	480
1.0	0.8	1.8533367786122123e-15	490
1.0	0.8	1.8511385064078846e-15	500
1.0	0.8	1.849026097631288e-15	510
1.0	0.8	1.8469982678965676e-15	520
1.0	0.8	1.8450536823316843e-15	530
1.0	0.8	1.843190964183758e-15	540
1.0	0.8	1.841408702689505e-15	550
1.0	0.8	1.839705460226442e-15	560
1.0	0.8	1.8380797787728414e-15	570
1.0	0.8	1.83653018571265e-15	580
1.0	0.8	1.835055199026405e-15	590
1.0	0.8	1.8336533319116122e-15	600
1.0	0.8	1.832323096876911e-15	610
1.0	0.8	1.8310630093537277e-15	620
1.0	0.8	1.8298715908677904e-15	630
1.0	0.8	1.828747371810931e-15	640
1.0	0.8	1.827688893851271e-15	650
1.0	0.8	1.826694712017339e-15	660
1.0	0.8	1.8257633964890823e-15	670
1.0	0.8	1.824893534126135e-15	680
1.0	0.8	1.82408372976109e-15	690
1.0	0.8	1.8233326072831318e-15	700
1.0	0.8	1.8226388105350415e-15	710
1.0	0.8	1.8220010040443737e-15	720
1.0	0.8	1.8214178736076147e-15	730
1.0	0.8	1.820888126744226e-15	740
1.0	0.8	1.8204104930357906e-15	750
1.0	0.8	1.8199837243638647e-15	760
1.0	0.8	1.8196065950587108e-15	770
1.0	0.8	1.8192779019698427e-15	780
1.0	0.8	1.8189964644680534e-15	790
1.0	0.8	1.818761124387638e-15	800
1.0	0.8	1.818570745916459e-15	810
1.0	0.8	1.8184242154407596e-15	820
1.0	0.8	1.8183204413508196e-15	830
1.0	0.8	1.818258353812814e-15	840
1.0	0.8	1.8182369045117688e-15	850
1.0	0.8	1.8182550663697743e-15	860
1.0	0.8	1.8183118332433415e-15	870
1.0	0.8	1.818406219603162e-15	880
1.0	0.8	1.8185372601993135e-15	890
1.0	0.8	1.8187040097145205e-15	900
1.0	0.8	1.818905542407783e-15	910
1.0	0.8	1.8191409517504974e-15	920
1.0	0.8	1.819409350056855e-15	930
1.0	0.8	1.8197098681101675e-15	940
1.0	0.8	1.820041654786564e-15	950
1.0	0.8	1.820403876677307e-15	960
1.0	0.8	1.8207957177109133e-15	970
1.0	0.8	1.821216378776005e-15	980
1.0	0.8	1.821665077345856e-15	990
1.0	0.8	1.8221410471053466e-15	1000
1.0	0.8	1.8226435375810686e-15	1010
1.0	0.8	1.8231718137751523e-15	1020
1.0	0.8	1.8237251558033896e-15	1030
1.0	0.8	1.824302858538074e-15	1040
1.0	0.8	1.8249042312560194e-15	1050
1.0	0.8	1.825528597292073e-15	1060
1.0	0.8	1.8261752936984683e-15	1070
1.0	0.8	1.8268436709102564e-15	1080
1.0	0.8	1.8275330924170428e-15	1090
1.0	1.0	1.2703049885251804e-15	200
1.0	1.0	1.2710814646446733e-15	210
1.0	1.0	1.2720120394873165e-15	220
1.0	1.0	1.2730767319655098e-15	230
1.0	1.0	1.2742580542381515e-15	240
1.0	1.0	1.275540728581268e-15	250
1.0	1.0	1.2769114742756683e-15	260
1.0	1.0	1.278358827993399e-15	270
1.0	1.0	1.2798729779668813e-15	280
1.0	1.0	1.2814456029958554e-15	290
1.0	1.0	1.2830697137031864e-15	300
1.0	1.0	1.2847394967908136e-15	310
1.0	1.0	1.2864501644630135e-15	320
1.0	1.0	1.2881978114641056e-15	330
1.0	1.0	1.2899792818565534e-15	340
1.0	1.0	1.2917920470842564e-15	350
1.0	1.0	1.2936340962273091e-15	360
1.0	1.0	1.295503838768392e-15	370
1.0	1.0	1.297400019707116e-15	380
1.0	1.0	1.299321646491771e-15	390
1.0	1.0	1.3012679269824038e-15	400
1.0	1.0	1.3032382175003242e-15	410
1.0	1.0	1.3052319799384499e-15	420
1.0	1.0	1.307248746886418e-15	430
1.0	1.0	1.309288093747474e-15	440
1.0	1.0	1.3113496168773684e-15	450
1.0	1.0	1.3134329168474696e-15	460
1.0	1.0	1.3155375860169162e-15	470
1.0	1.0	1.3176631996852214e-15	480
1.0	1.0	1.3198093101830538e-15	490
1.0	1.0	1.3219754433417926e-15	500
1.0	1.0	1.3241610968598492e-15	510
1.0	1.0	1.3263657401547793e-15	520
1.0	1.0	1.3285888153540092e-15	530
1.0	1.0	1.3308297391339305e-15	540
1.0	1.0	1.3330879051668939e-15	550
1.0	1.0	1.3353626869790875e-15	560
1.0	1.0	1.3376534410596521e-15	570
1.0	1.0	1.3399595100932906e-15	580
1.0	1.0	1.3422802262157166e-15	590
1.0	1.0	1.3446149142140461e-15	600
1.0	1.0	1.346962894613168e-15	610
1.0	1.0	1.3493234866049178e-15	620
1.0	1.0	1.3516960107896742e-15	630
1.0	1.0	1.354079791710572e-15	640
1.0	1.0	1.3564741601688566e-15	650
1.0	1.0	1.3588784553156522e-15	660
1.0	1.0	1.3612920265206575e-15	670
1.0	1.0	1.3637142350222939e-15	680
1.0	1.0	1.3661444553668638e-15	690
1.0	1.0	1.3685820766464883e-15	700
1.0	1.0	1.3710265035471223e-15	710
1.0	1.0	1.3734771572189303e-15	720
1.0	1.0	1.3759334759818475e-15	730
1.0	1.0	1.3783949158793906e-15	740
1.0	1.0	1.3808609510936611e-15	750
1.0	1.0	1.3833310742342856e-15	760
1.0	1.0	1.3858047965135408e-15	770
1.0	1.0	1.3882816478194392e-15	780
1.0	1.0	1.390761176697883e-15	790
1.0	1.0	1.3932429502543652e-15	800
1.0	1.0	1.3957265539849781e-15	810
1.0	1.0	1.3982115915458057e-15	820
1.0	1.0	1.400697684469087e-15	830
1.0	1.0	1.4031844718337756e-15	840
1.0	1.0	1.4056716098976074e-15	850
1.0	1.0	1.4081587716969684e-15	860
1.0	1.0	1.4106456466204137e-15	870
1.0	1.0	1.413131939960999e-15	880
1.0	1.0	1.4156173724521376e-15	890
1.0	1.0	1.4181016797911473e-15	900
1.0	1.0	1.4205846121541954e-15	910
1.0	1.0	1.4230659337059417e-15	920
1.0	1.0	1.4255454221067943e-15	930
1.0	1.0	1.4280228680202803e-15	940
1.0	1.0	1.4304980746227827e-15	950
1.0	1.0	1.432970857117527e-15	960
1.0	1.0	1.4354410422544971e-15	970
1.0	1.0	1.4379084678576386e-15	980
1.0	1.0	1.4403729823605584e-15	990
1.0	1.0	1.442834444351717e-15	1000
1.0	1.0	1.445292722129887e-15	1010
1.0	1.0	1.4477476932705447e-15	1020
1.0	1.0	1.4501992442037273e-15	1030
1.0	1.0	1.452647269803708e-15	1040
1.0	1.0	1.4550916729907981e-15	1050
1.0	1.0	1.457532364345428e-15	1060
1.0	1.0	1.459969261734659e-15	1070
1.0	1.0	1.4624022899510844e-15	1080
1.0	1.0	1.4648313803641543e-15	1090
1.0	1.2	1.291460873556075e-15	200
1.0	1.2	1.2942633687659271e-15	210
1.0	1.2	1.2972037366202124e-15	220
1.0	1.2	1.3002751131475406e-15	230
1.0	1.2	1.3034689065685261e-15	240
1.0	1.2	1.3067751930861378e-15	250
1.0	1.2	1.310183083574643e-15	260
1.0	1.2	1.3136810613438946e-15	270
1.0	1.2	1.3172572877311013e-15	280
1.0	1.2	1.3208998718035084e-15	290
1.0	1.2	1.3245971015378597e-15	300
1.0	1.2	1.3283376355254366e-15	310
1.0	1.2	1.3321106559590071e-15	320
1.0	1.2	1.335905985089801e-15	330
1.0	1.2	1.3397141683809086e-15	340
1.0	1.2	1.343526528221184e-15	350
1.0	1.2	1.3473351923507708e-15	360
1.0	1.2	1.3511331011596598e-15	370
1.0	1.2	1.3549139978309126e-15	380
1.0	1.2	1.3586724049792766e-15	390
1.0	1.2	1.3624035910404927e-15	400
1.0	1.2	1.3661035292399144e-15	410
1.0	1.2	1.3697688515424254e-15	420
1.0	1.2	1.3733967995797089e-15	430
1.0	1.2	1.3769851741787558e-15	440
1.0	1.2	1.3805322847835663e-15	450
1.0	1.2	1.3840368997728813e-15	460
1.0	1.2	1.3874981984297052e-15	470
1.0	1.2	1.3909157251110983e-15	480
1.0	1.2	1.3942893459954623e-15	490
1.0	1.2	1.3976192086454984e-15	500
1.0	1.2	1.400905704513862e-15	510
1.0	1.2	1.4041494344313447e-15	520
1.0	1.2	1.4073511770502742e-15	530
1.0	1.2	1.4105118601656233e-15	540
1.0	1.2	1.4136325347997054e-15	550
1.0	1.2	1.4167143519110078e-15	560
1.0	1.2	1.419758541571324e-15	570
1.0	1.2	1.4227663944459482e-15	580
1.0	1.2	1.4257392454079106e-15	590
1.0	1.2	1.4286784591175434e-15	600
1.0	1.2	1.4315854174022068e-15	610
1.0	1.2	1.4344615082767771e-15	620
1.0	1.2	1.4373081164529209e-15	630
1.0	1.2	1.440126615193554e-15	640
1.0	1.2	1.4429183593780422e-15	650
1.0	1.2	1.4456846796529515e-15	660
1.0	1.2	1.4484268775526317e-15	670
1.0	1.2	1.4511462214831021e-15	680
1.0	1.2	1.4538439434716373e-15	690
1.0	1.2	1.4565212365931153e-15	700
1.0	1.2	1.4591792529921422e-15	710
1.0	1.2	1.4618191024277245e-15	720
1.0	1.2	1.4644418512742899e-15	730
1.0	1.2	1.4670485219194839e-15	740
1.0	1.2	1.4696400925052518e-15	750
1.0	1.2	1.472217496964285e-15	760
1.0	1.2	1.474781625309089e-15	770
1.0	1.2	1.477333324135507e-15	780
1.0	1.2	1.4798733973068895e-15	790
1.0	1.2	1.4824026067888538e-15	800
1.0	1.2	1.4849216736081111e-15	810
1.0	1.2	1.487431278911973e-15	820
1.0	1.2	1.4899320651079727e-15	830
1.0	1.2	1.4924246370655635e-15	840
1.0	1.2	1.4949095633641722e-15	850
1.0	1.2	1.4973873775738655e-15	860
1.0	1.2	1.499858579556776e-15	870
1.0	1.2	1.5023236367789987e-15	880
1.0	1.2	1.5047829856241438e-15	890
1.0	1.2	1.5072370327010055e-15	900
1.0	1.2	1.5096861561389349e-15	910
1.0	1.2	1.512130706865549e-15	920
1.0	1.2	1.5145710098622224e-15	930
1.0	1.2	1.5170073653936695e-15	940
1.0	1.2	1.5194400502085696e-15	950
1.0	1.2	1.5218693187087897e-15	960
1.0	1.2	1.5242954040853199e-15	970
1.0	1.2	1.5267185194194417e-15	980
1.0	1.2	1.5291388587481129e-15	990
1.0	1.2	1.5315565980928726e-15	1000
1.0	1.2	1.533971896451824e-15	1010
1.0	1.2	1.5363848967546056e-15	1020
1.0	1.2	1.5387957267804078e-15	1030
1.0	1.2	1.5412045000392806e-15	1040
1.0	1.2	1.543611316617204e-15	1050
1.0	1.2	1.546016263985423e-15	1060
1.0	1.2	1.5484194177747647e-15	1070
1.0	1.2	1.5508208425156623e-15	1080
1.0	1.2	1.5532205923447188e-15	1090
1.0	1.4	1.7702260339983031e-15	200
1.0	1.4	1.7706569617533021e-15	210
1.0	1.4	1.7711181543909738e-15	220
1.0	1.4	1.7716246458365992e-15	230
1.0	1.4	1.7721887152401333e-15	240
1.0	1.4	1.7728201369090164e-15	250
1.0	1.4	1.773526394797877e-15	260
1.0	1.4	1.7743128875896488e-15	270
1.0	1.4	1.7751831359997895e-15	280
1.0	1.4	1.7761389951182316e-15	290
1.0	1.4	1.7771808696825115e-15	300
1.0	1.4	1.7783079278939653e-15	310
1.0	1.4	1.7795183088024386e-15	320
1.0	1.4	1.7808093186995758e-15	330
1.0	1.4	1.7821776128862158e-15	340
1.0	1.4	1.7836193602889176e-15	350
1.0	1.4	1.7851303894911482e-15	360
1.0	1.4	1.786706315704182e-15	370
1.0	1.4	1.7883426489802092e-15	380
1.0	1.4	1.7900348845554535e-15	390
1.0	1.4	1.791778576616283e-15	400
1.0	1.4	1.793569397031413e-15	410
1.0	1.4	1.795403180717142e-15	420
1.0	1.4	1.7972759593291533e-15	430
1.0	1.4	1.7991839849298184e-15	440
1.0	1.4	1.8011237451864343e-15	450
1.0	1.4	1.8030919715316262e-15	460
1.0	1.4	1.8050856415760683e-15	470
1.0	1.4	1.8071019769164987e-15	480
1.0	1.4	1.8091384373362218e-15	490
1.0	1.4	1.8111927122559293e-15	500
1.0	1.4	1.81326271016322e-15	510
1.0	1.4	1.8153465466313884e-15	520
1.0	1.4	1.817442531432599e-15	530
1.0	1.4	1.819549155157776e-15	540
1.0	1.4	1.8216650756747123e-15	550
1.0	1.4	1.823789104686448e-15	560
1.0	1.4	1.8259201945928076e-15	570
1.0	1.4	1.8280574258082815e-15	580
1.0	1.4	1.8301999946478336e-15	590
1.0	1.4	1.8323472018580782e-15	600
1.0	1.4	1.8344984418432165e-15	610
1.0	1.4	1.8366531926126267e-15	620
1.0	1.4	1.8388110064590304e-15	630
1.0	1.4	1.840971501362124e-15	640
1.0	1.4	1.8431343531017005e-15	650
1.0	1.4	1.8452992880562767e-15	660
1.0	1.4	1.8474660766572677e-15	670
1.0	1.4	1.8496345274647754e-15	680
1.0	1.4	1.8518044818284697e-15	690
1.0	1.4	1.8539758090956027e-15	700
1.0	1.4	1.8561484023278093e-15	710
1.0	1.4	1.858322174488547e-15	720
1.0	1.4	1.8604970550638696e-15	730
1.0	1.4	1.8626729870805297e-15	740
1.0	1.4	1.8648499244867927e-15	750
1.0	1.4	1.86702782986327e-15	760
1.0	1.4	1.8692066724328195e-15	770
1.0	1.4	1.8713864263405516e-15	780
1.0	1.4	1.8735670691769616e-15	790
1.0	1.4	1.8757485807191363e-15	800
1.0	1.4	1.8779309418669123e-15	810
1.0	1.4	1.880114133752702e-15	820
1.0	1.4	1.882298137005488e-15	830
1.0	1.4	1.884482931151178e-15	840
1.0	1.4	1.8866684941330768e-15	850
1.0	1.4	1.888854801937747e-15	860
1.0	1.4	1.8910418283129414e-15	870
1.0	1.4	1.893229544565541e-15	880
1.0	1.4	1.895417919428666e-15	890
1.0	1.4	1.897606918988274e-15	900
1.0	1.4	1.89979650666044e-15	910
1.0	1.4	1.9019866432116474e-15	920
1.0	1.4	1.9041772868150828e-15	930
1.0	1.4	1.906368393136848e-15	940
1.0	1.4	1.9085599154465927e-15	950
1.0	1.4	1.9107518047478286e-15	960
1.0	1.4	1.9129440099236706e-15	970
1.0	1.4	1.9151364778943256e-15	980
1.0	1.4	1.9173291537830985e-15	990
1.0	1.4	1.9195219810881422e-15	1000
1.0	1.4	1.921714901857513e-15	1010
1.0	1.4	1.923907856865479e-15	1020
1.0	1.4	1.9261007857882785e-15	1030
1.0	1.4	1.928293627377875e-15	1040
1.0	1.4	1.9304863196324234e-15	1050
1.0	1.4	1.932678799962392e-15	1060
1.0	1.4	1.9348710053515196e-15	1070
1.0	1.4	1.937062872511892e-15	1080
1.0	1.4	1.9392543380326035e-15	1090
1.0	1.6	1.589645102257431e-15	200
1.0	1.6	1.5957628952204168e-15	210
1.0	1.6	1.6017303182707193e-15	220
1.0	1.6	1.6075631695589e-15	230
1.0	1.6	1.6132751668580863e-15	240
1.0	1.6	1.6188782643033979e-15	250
1.0	1.6	1.6243828752477331e-15	260
1.0	1.6	1.6297980355188491e-15	270
1.0	1.6	1.6351315320026397e-15	280
1.0	1.6	1.6403900133187617e-15	290
1.0	1.6	1.6455790928178007e-15	300
1.0	1.6	1.65070344927176e-15	310
1.0	1.6	1.6557669272899388e-15	320
1.0	1.6	1.6607726374007513e-15	330
1.0	1.6	1.665723054600745e-15	340
1.0	1.6	1.6706201137072904e-15	350
1.0	1.6	1.67546529982831e-15	360
1.0	1.6	1.6802597324987361e-15	370
1.0	1.6	1.6850042423967446e-15	380
1.0	1.6	1.6896994399528728e-15	390
1.0	1.6	1.6943457755455328e-15	400
1.0	1.6	1.6989435913055215e-15	410
1.0	1.6	1.7034931648163427e-15	420
1.0	1.6	1.7079947451939544e-15	430
1.0	1.6	1.7124485821636474e-15	440
1.0	1.6	1.7168549488316453e-15	450
1.0	1.6	1.7212141588841445e-15	460
1.0	1.6	1.725526578947087e-15	470
1.0	1.6	1.7297926368146997e-15	480
1.0	1.6	1.7340128262118298e-15	490
1.0	1.6	1.738187708700567e-15	500
1.0	1.6	1.74231791328101e-15	510
1.0	1.6	1.746404134173105e-15	520
1.0	1.6	1.7504471272041018e-15	530
1.0	1.6	1.7544477051665997e-15	540
1.0	1.6	1.7584067324564812e-15	550
1.0	1.6	1.7623251192492486e-15	560
1.0	1.6	1.7662038154276183e-15	570
1.0	1.6	1.7700438044328867e-15	580
1.0	1.6	1.7738460971773213e-15	590
1.0	1.6	1.7776117261244548e-15	600
1.0	1.6	1.781341739618261e-15	610
1.0	1.6	1.7850371965203306e-15	620
1.0	1.6	1.788699161196017e-15	630
1.0	1.6	1.792328698875479e-15	640
1.0	1.6	1.795926871403421e-15	650
1.0	1.6	1.799494733381517e-15	660
1.0	1.6	1.8030333286998573e-15	670
1.0	1.6	1.8065436874477716e-15	680
1.0	1.6	1.810026823189922e-15	690
1.0	1.6	1.8134837305903466e-15	700
1.0	1.6	1.8169153833648156e-15	710
1.0	1.6	1.820322732540514e-15	720
1.0	1.6	1.8237067050012866e-15	730
1.0	1.6	1.827068202296422e-15	740
1.0	1.6	1.8304080996911582e-15	750
1.0	1.6	1.8337272454376076e-15	760
1.0	1.6	1.8370264602454774e-15	770
1.0	1.6	1.8403065369329454e-15	780
1.0	1.6	1.8435682402390217e-15	790
1.0	1.6	1.846812306779799e-15	800
1.0	1.6	1.8500394451322956e-15	810
1.0	1.6	1.8532503360305e-15	820
1.0	1.6	1.856445632659604e-15	830
1.0	1.6	1.8596259610354026e-15	840
1.0	1.6	1.8627919204569635e-15	850
1.0	1.6	1.8659440840217156e-15	860
1.0	1.6	1.869082999193051e-15	870
1.0	1.6	1.872209188411561e-15	880
1.0	1.6	1.875323149741766e-15	890
1.0	1.6	1.878425357547145e-15	900
1.0	1.6	1.8815162631869485e-15	910
1.0	1.6	1.8845962957290086e-15	920
1.0	1.6	1.8876658626733854e-15	930
1.0	1.6	1.890725350682324e-15	940
1.0	1.6	1.8937751263124857e-15	950
1.0	1.6	1.896815536745951e-15	960
1.0	1.6	1.899846910516921e-15	970
1.0	1.6	1.9028695582314758e-15	980
1.0	1.6	1.905883773278076e-15	990
1.0	1.6	1.9088898325268775e-15	1000
1.0	1.6	1.9118879970162066e-15	1010
1.0	1.6	1.9148785126247816e-15	1020
1.0	1.6	1.9178616107285806e-15	1030
1.0	1.6	1.920837508841392e-15	1040
1.0	1.6	1.9238064112383505e-15	1050
1.0	1.6	1.92676850956184e-15	1060
1.0	1.6	1.9297239834094196e-15	1070
1.0	1.6	1.932673000903426e-15	1080
1.0	1.6	1.9356157192421382e-15	1090
1.0	1.8	1.7493176730051102e-15	200
1.0	1.8	1.75384386941948e-15	210
1.0	1.8	1.7582056422829696e-15	220
1.0	1.8	1.7624364084377465e-15	230
1.0	1.8	1.7665643177836309e-15	240
1.0	1.8	1.7706130822852096e-15	250
1.0	1.8	1.7746026223819842e-15	260
1.0	1.8	1.7785495800319538e-15	270
1.0	1.8	1.7824677359291973e-15	280
1.0	1.8	1.786368358639947e-15	290
1.0	1.8	1.7902605054306943e-15	300
1.0	1.8	1.794151288305924e-15	310
1.0	1.8	1.798046114058323e-15	320
1.0	1.8	1.801948903738596e-15	330
1.0	1.8	1.805862294632212e-15	340
1.0	1.8	1.8097878263474196e-15	350
1.0	1.8	1.8137261117557917e-15	360
1.0	1.8	1.8176769930989203e-15	370
1.0	1.8	1.821639683434802e-15	380
1.0	1.8	1.825612893631135e-15	390
1.0	1.8	1.8295949452383738e-15	400
1.0	1.8	1.833583869735888e-15	410
1.0	1.8	1.8375774948038906e-15	420
1.0	1.8	1.84157351841054e-15	430
1.0	1.8	1.8455695716073974e-15	440
1.0	1.8	1.849563270994184e-15	450
1.0	1.8	1.8535522618467627e-15	460
1.0	1.8	1.8575342529049618e-15	470
1.0	1.8	1.8615070437940887e-15	480
1.0	1.8	1.8654685460118803e-15	490
1.0	1.8	1.8694167983561666e-15	500
1.0	1.8	1.873349977602781e-15	510
1.0	1.8	1.877266405172115e-15	520
1.0	1.8	1.8811645504495556e-15	530
1.0	1.8	1.8850430313524265e-15	540
1.0	1.8	1.888900612665859e-15	550
1.0	1.8	1.892736202603645e-15	560
1.0	1.8	1.8965488479883256e-15	570
1.0	1.8	1.9003377283883406e-15	580
1.0	1.8	1.90410214949873e-15	590
1.0	1.8	1.9078415360062922e-15	600
1.0	1.8	1.9115554241393625e-15	610
1.0	1.8	1.915243454066945e-15	620
1.0	1.8	1.9189053622808153e-15	630
1.0	1.8	1.9225409740675523e-15	640
1.0	1.8	1.92615019615445e-15	650
1.0	1.8	1.9297330095938946e-15	660
1.0	1.8	1.9332894629341887e-15	670
1.0	1.8	1.936819665711244e-15	680
1.0	1.8	1.940323782284021e-15	690
1.0	1.8	1.943802026027297e-15	700
1.0	1.8	1.947254653887725e-15	710
1.0	1.8	1.9506819613030196e-15	720
1.0	1.8	1.954084277479308e-15	730
1.0	1.8	1.9574619610179e-15	740
1.0	1.8	1.960815395879887e-15	750
1.0	1.8	1.9641449876749475e-15	760
1.0	1.8	1.967451160259174e-15	770
1.0	1.8	1.9707343526258888e-15	780
1.0	1.8	1.9739950160727793e-15	790
1.0	1.8	1.9772336116286137e-15	800
1.0	1.8	1.980450607722712e-15	810
1.0	1.8	1.9836464780807543e-15	820
1.0	1.8	1.9868216998309005e-15	830
1.0	1.8	1.9899767518047333e-15	840
1.0	1.8	1.993112113018207e-15	850
1.0	1.8	1.9962282613184603e-15	860
1.0	1.8	1.9993256721831856e-15	870
1.0	1.8	2.0024048176598385e-15	880
1.0	1.8	2.0054661654329085e-15	890
1.0	1.8	2.0085101780081384e-15	900
1.0	1.8	2.0115373120033265e-15	910
1.0	1.8	2.014548017536083e-15	920
1.0	1.8	2.0175427376996528e-15	930
1.0	1.8	2.0205219081184705e-15	940
1.0	1.8	2.023485956575861e-15	950
1.0	1.8	2.026435302706817e-15	960
1.0	1.8	2.0293703577494063e-15	970
1.0	1.8	2.032291524348839e-15	980
1.0	1.8	2.035199196408754e-15	990
1.0	1.8	2.0380937589847546e-15	1000
1.0	1.8	2.040975588215599e-15	1010
1.0	1.8	2.04384505128793e-15	1020
1.0	1.8	2.0467025064307088e-15	1030
1.0	1.8	2.049548302935947e-15	1040
1.0	1.8	2.052382781202586e-15	1050
1.0	1.8	2.0552062728006735e-15	1060
1.0	1.8	2.058019100553272e-15	1070
1.0	1.8	2.060821578633778e-15	1080
1.0	1.8	2.063614012676531e-15	1090
1.0	2.0	3.4065987453756165e-15	200
1.0	2.0	3.410560742485304e-15	210
1.0	2.0	3.4138777391890283e-15	220
1.0	2.0	3.4166549398055986e-15	230
1.0	2.0	3.418984426979164e-15	240
1.0	2.0	3.4209466698361164e-15	250
1.0	2.0	3.422611808153417e-15	260
1.0	2.0	3.424040760899042e-15	270
1.0	2.0	3.4252861967464733e-15	280
1.0	2.0	3.426393395451909e-15	290
1.0	2.0	3.4274010218273117e-15	300
1.0	2.0	3.428341828231014e-15	310
1.0	2.0	3.429243296905952e-15	320
1.0	2.0	3.4301282300033766e-15	330
1.0	2.0	3.431015292596463e-15	340
1.0	2.0	3.4319195122538707e-15	350
1.0	2.0	3.4328527376435037e-15	360
1.0	2.0	3.4338240580134754e-15	370
1.0	2.0	3.434840185112729e-15	380
1.0	2.0	3.4359057990502058e-15	390
1.0	2.0	3.4370238596589424e-15	400
1.0	2.0	3.4381958850615644e-15	410
1.0	2.0	3.4394221992787892e-15	420
1.0	2.0	3.440702150852747e-15	430
1.0	2.0	3.442034304554245e-15	440
1.0	2.0	3.4434166082994266e-15	450
1.0	2.0	3.444846537415743e-15	460
1.0	2.0	3.4463212183720547e-15	470
1.0	2.0	3.4478375340284978e-15	480
1.0	2.0	3.449392212375177e-15	490
1.0	2.0	3.4509819006210954e-15	500
1.0	2.0	3.452603226372341e-15	510
1.0	2.0	3.4542528475076484e-15	520
1.0	2.0	3.455927492223881e-15	530
1.0	2.0	3.4576239905888027e-15	540
1.0	2.0	3.459339298805945e-15	550
1.0	2.0	3.461070517269163e-15	560
1.0	2.0	3.462814903364329e-15	570
1.0	2.0	3.464569879863355e-15	580
1.0	2.0	3.466333039652217e-15	590
1.0	2.0	3.4681021474398885e-15	600
1.0	2.0	3.4698751390095192e-15	610
1.0	2.0	3.471650118495771e-15	620
1.0	2.0	3.4734253541035138e-15	630
1.0	2.0	3.4751992726217657e-15	640
1.0	2.0	3.4769704530327356e-15	650
1.0	2.0	3.4787376194684934e-15	660
1.0	2.0	3.4804996337263156e-15	670
1.0	2.0	3.4822554875176712e-15	680
1.0	2.0	3.484004294594897e-15	690
1.0	2.0	3.4857452828725454e-15	700
1.0	2.0	3.4874777866375206e-15	710
1.0	2.0	3.4892012389226015e-15	720
1.0	2.0	3.4909151641012737e-15	730
1.0	2.0	3.492619170747615e-15	740
1.0	2.0	3.4943129447935425e-15	750
1.0	2.0	3.495996243005594e-15	760
1.0	2.0	3.4976688867954597e-15	770
1.0	2.0	3.499330756371818e-15	780
1.0	2.0	3.5009817852354647e-15	790
1.0	2.0	3.5026219550155194e-15	800
1.0	2.0	3.5042512906408776e-15	810
1.0	2.0	3.505869855838465e-15	820
1.0	2.0	3.507477748947706e-15	830
1.0	2.0	3.509075099039143e-15	840
1.0	2.0	3.5106620623239915e-15	850
1.0	2.0	3.5122388188407372e-15	860
1.0	2.0	3.5138055694044816e-15	870
1.0	2.0	3.5153625328044963e-15	880
1.0	2.0	3.5169099432355227e-15	890
1.0	2.0	3.5184480479485808e-15	900
1.0	2.0	3.5199771051072857e-15	910
1.0	2.0	3.521497381836094e-15	920
1.0	2.0	3.5230091524474518e-15	930
1.0	2.0	3.524512696835248e-15	940
1.0	2.0	3.526008299022609e-15	950
1.0	2.0	3.527496245852637e-15	960
1.0	2.0	3.5289768258113085e-15	970
1.0	2.0	3.5304503279723142e-15	980
1.0	2.0	3.531917041054259e-15	990
1.0	2.0	3.533377252581243e-15	1000
1.0	2.0	3.5348312481383092e-15	1010
1.0	2.0	3.536279310713911e-15	1020
1.0	2.0	3.537721720122047e-15	1030
1.0	2.0	3.5391587524972208e-15	1040
1.0	2.0	3.5405906798557604e-15	1050
1.0	2.0	3.542017769717745e-15	1060
1.0	2.0	3.543440284783936e-15	1070
1.0	2.0	3.544858482662684e-15	1080
1.0	2.0	3.5462726156421358e-15	1090
1.0	2.2	2.6070651620088856e-15	200
1.0	2.2	2.6150474312829788e-15	210
1.0	2.2	2.6228183019627094e-15	220
1.0	2.2	2.6304150283295053e-15	230
1.0	2.2	2.6378695120529037e-15	240
1.0	2.2	2.6452089462094666e-15	250
1.0	2.2	2.652456391857001e-15	260
1.0	2.2	2.6596312786674115e-15	270
1.0	2.2	2.666749834018525e-15	280
1.0	2.2	2.6738254507782156e-15	290
1.0	2.2	2.6808690055713423e-15	300
1.0	2.2	2.6878891385173597e-15	310
1.0	2.2	2.6948925035265426e-15	320
1.0	2.2	2.701883996029902e-15	330
1.0	2.2	2.7088669629356602e-15	340
1.0	2.2	2.7158433978711016e-15	350
1.0	2.2	2.722814123451883e-15	360
1.0	2.2	2.7297789614082644e-15	370
1.0	2.2	2.736736890830664e-15	380
1.0	2.2	2.743686194501689e-15	390
1.0	2.2	2.7506245931839133e-15	400
1.0	2.2	2.757549367766398e-15	410
1.0	2.2	2.7644574692845758e-15	420
1.0	2.2	2.7713456169770163e-15	430
1.0	2.2	2.7782103846999664e-15	440
1.0	2.2	2.7850482761665246e-15	450
1.0	2.2	2.791855789601691e-15	460
1.0	2.2	2.7986294725010827e-15	470
1.0	2.2	2.8053659672484504e-15	480
1.0	2.2	2.812062048387402e-15	490
1.0	2.2	2.818714652357761e-15	500
1.0	2.2	2.8253209005014818e-15	510
1.0	2.2	2.8318781161205037e-15	520
1.0	2.2	2.8383838363335803e-15	530
1.0	2.2	2.8448358194341996e-15	540
1.0	2.2	2.8512320484009273e-15	550
1.0	2.2	2.8575707311569153e-15	560
1.0	2.2	2.863850298119437e-15	570
1.0	2.2	2.8700693975248604e-15	580
1.0	2.2	2.876226888960473e-15	590
1.0	2.2	2.8823218354832344e-15	600
1.0	2.2	2.8883534946574315e-15	610
1.0	2.2	2.8943213087984404e-15	620
1.0	2.2	2.9002248946692554e-15	630
1.0	2.2	2.9060640328392676e-15	640
1.0	2.2	2.9118386568818153e-15	650
1.0	2.2	2.9175488425572694e-15	660
1.0	2.2	2.9231947971025853e-15	670
1.0	2.2	2.928776848725184e-15	680
1.0	2.2	2.934295436379201e-15	690
1.0	2.2	2.939751099884997e-15	700
1.0	2.2	2.9451444704377515e-15	710
1.0	2.2	2.950476261538842e-15	720
1.0	2.2	2.9557472603725215e-15	730
1.0	2.2	2.9609583196418558e-15	740
1.0	2.2	2.9661103498702583e-15	750
1.0	2.2	2.971204312168823e-15	760
1.0	2.2	2.976241211464837e-15	770
1.0	2.2	2.9812220901826063e-15	780
1.0	2.2	2.9861480223648218e-15	790
1.0	2.2	2.991020108220065e-15	800
1.0	2.2	2.9958394690803604e-15	810
1.0	2.2	3.0006072427513553e-15	820
1.0	2.2	3.0053245792367132e-15	830
1.0	2.2	3.009992636818058e-15	840
1.0	2.2	3.0146125784712686e-15	850
1.0	2.2	3.0191855686002177e-15	860
1.0	2.2	3.023712770069098e-15	870
1.0	2.2	3.028195341514968e-15	880
1.0	2.2	3.0326344349225225e-15	890
1.0	2.2	3.0370311934438083e-15	900
1.0	2.2	3.0413867494461764e-15	910
1.0	2.2	3.0457022227725055e-15	920
1.0	2.2	3.049978719198387e-15	930
1.0	2.2	3.0542173290718928e-15	940
1.0	2.2	3.0584191261220744e-15	950
1.0	2.2	3.0625851664232684e-15	960
1.0	2.2	3.066716487502954e-15	970
1.0	2.2	3.070814107581666e-15	980
1.0	2.2	3.0748790249341354e-15	990
1.0	2.2	3.0789122173615286e-15	1000
1.0	2.2	3.0829146417654007e-15	1010
1.0	2.2	3.0868872338143756e-15	1020
1.0	2.2	3.0908309076955243e-15	1030
1.0	2.2	3.094746555942553e-15	1040
1.0	2.2	3.098635049333865e-15	1050
1.0	2.2	3.1024972368537714e-15	1060
1.0	2.2	3.106333945710783e-15	1070
1.0	2.2	3.11014598140723e-15	1080
1.0	2.2	3.113934127855096e-15	1090
1.0	2.4	3.5360547284154844e-15	200
1.0	2.4	3.550296223938015e-15	210
1.0	2.4	3.563902785157607e-15	220
1.0	2.4	3.576931534642785e-15	230
1.0	2.4	3.589433846763014e-15	240
1.0	2.4	3.601456373159424e-15	250
1.0	2.4	3.613041731942512e-15	260
1.0	2.4	3.624228969465158e-15	270
1.0	2.4	3.635053872376379e-15	280
1.0	2.4	3.645549185481503e-15	290
1.0	2.4	3.655744774618891e-15	300
1.0	2.4	3.66566776151971e-15	310
1.0	2.4	3.675342648381905e-15	320
1.0	2.4	3.684791442983637e-15	330
1.0	2.4	3.69403379010852e-15	340
1.0	2.4	3.703087111484594e-15	350
1.0	2.4	3.711966754042071e-15	360
1.0	2.4	3.720686144808207e-15	370
1.0	2.4	3.729256949955127e-15	380
1.0	2.4	3.7376892352088615e-15	390
1.0	2.4	3.745991624860467e-15	400
1.0	2.4	3.7541714568704765e-15	410
1.0	2.4	3.7622349319323845e-15	420
1.0	2.4	3.770187254790944e-15	430
1.0	2.4	3.7780327665485315e-15	440
1.0	2.4	3.785775067106027e-15	450
1.0	2.4	3.793417127254868e-15	460
1.0	2.4	3.800961390253976e-15	470
1.0	2.4	3.808409862986817e-15	480
1.0	2.4	3.815764197000331e-15	490
1.0	2.4	3.823025759884357e-15	500
1.0	2.4	3.830195697561652e-15	510
1.0	2.4	3.837274988132574e-15	520
1.0	2.4	3.844264487960153e-15	530
1.0	2.4	3.851164970697369e-15	540
1.0	2.4	3.8579771599545704e-15	550
1.0	2.4	3.864701756285295e-15	560
1.0	2.4	3.8713394591384886e-15	570
1.0	2.4	3.87789098438662e-15	580
1.0	2.4	3.884357077996134e-15	590
1.0	2.4	3.890738526361089e-15	600
1.0	2.4	3.897036163774008e-15	610
1.0	2.4	3.903250877462065e-15	620
1.0	2.4	3.909383610572039e-15	630
1.0	2.4	3.91543536344499e-15	640
1.0	2.4	3.9214071934818416e-15	650
1.0	2.4	3.927300213864176e-15	660
1.0	2.4	3.933115591360372e-15	670
1.0	2.4	3.938854543416844e-15	680
1.0	2.4	3.9445183347057824e-15	690
1.0	2.4	3.950108273276166e-15	700
1.0	2.4	3.9556257064324065e-15	710
1.0	2.4	3.96107201644533e-15	720
1.0	2.4	3.966448616182741e-15	730